+ 0.1 1 2 cbr 1000 ------- 2 1.0 3.1 0 0
- 0.1 1 2 cbr 1000 ------- 2 1.0 3.1 0 0
r 0.114 1 2 cbr 1000 ------- 2 1.0 3.1 0 0
+ 0.114 2 3 cbr 1000 ------- 2 1.0 3.1 0 0
- 0.114 2 3 cbr 1000 ------- 2 1.0 3.1 0 0
r 0.138 2 3 cbr 1000 ------- 2 1.0 3.1 0 0
+ 0.9 1 2 cbr 1000 ------- 2 1.0 3.1 1 1
- 0.9 1 2 cbr 1000 ------- 2 1.0 3.1 1 1
r 0.914 1 2 cbr 1000 ------- 2 1.0 3.1 1 1
+ 0.914 2 3 cbr 1000 ------- 2 1.0 3.1 1 1
- 0.914 2 3 cbr 1000 ------- 2 1.0 3.1 1 1
r 0.938 2 3 cbr 1000 ------- 2 1.0 3.1 1 1
+ 1.5 0 2 tcp 40 ------- 1 0.0 3.0 0 2
- 1.5 0 2 tcp 40 ------- 1 0.0 3.0 0 2
r 1.51016 0 2 tcp 40 ------- 1 0.0 3.0 0 2
+ 1.51016 2 3 tcp 40 ------- 1 0.0 3.0 0 2
- 1.51016 2 3 tcp 40 ------- 1 0.0 3.0 0 2
r 1.53032 2 3 tcp 40 ------- 1 0.0 3.0 0 2
+ 1.53032 3 2 ack 40 ------- 1 3.0 0.0 0 3
- 1.53032 3 2 ack 40 ------- 1 3.0 0.0 0 3
r 1.55048 3 2 ack 40 ------- 1 3.0 0.0 0 3
+ 1.55048 2 0 ack 40 ------- 1 3.0 0.0 0 3
- 1.55048 2 0 ack 40 ------- 1 3.0 0.0 0 3
r 1.56064 2 0 ack 40 ------- 1 3.0 0.0 0 3
+ 1.56064 0 2 tcp 1040 ------- 1 0.0 3.0 1 4
- 1.56064 0 2 tcp 1040 ------- 1 0.0 3.0 1 4
+ 1.56064 0 2 tcp 1040 ------- 1 0.0 3.0 2 5
- 1.5648 0 2 tcp 1040 ------- 1 0.0 3.0 2 5
r 1.5748 0 2 tcp 1040 ------- 1 0.0 3.0 1 4
+ 1.5748 2 3 tcp 1040 ------- 1 0.0 3.0 1 4
- 1.5748 2 3 tcp 1040 ------- 1 0.0 3.0 1 4
r 1.57896 0 2 tcp 1040 ------- 1 0.0 3.0 2 5
+ 1.57896 2 3 tcp 1040 ------- 1 0.0 3.0 2 5
- 1.57896 2 3 tcp 1040 ------- 1 0.0 3.0 2 5
r 1.59896 2 3 tcp 1040 ------- 1 0.0 3.0 1 4
+ 1.59896 3 2 ack 40 ------- 1 3.0 0.0 1 6
- 1.59896 3 2 ack 40 ------- 1 3.0 0.0 1 6
r 1.60312 2 3 tcp 1040 ------- 1 0.0 3.0 2 5
+ 1.60312 3 2 ack 40 ------- 1 3.0 0.0 2 7
- 1.60312 3 2 ack 40 ------- 1 3.0 0.0 2 7
r 1.61912 3 2 ack 40 ------- 1 3.0 0.0 1 6
+ 1.61912 2 0 ack 40 ------- 1 3.0 0.0 1 6
- 1.61912 2 0 ack 40 ------- 1 3.0 0.0 1 6
r 1.62328 3 2 ack 40 ------- 1 3.0 0.0 2 7
+ 1.62328 2 0 ack 40 ------- 1 3.0 0.0 2 7
- 1.62328 2 0 ack 40 ------- 1 3.0 0.0 2 7
r 1.62928 2 0 ack 40 ------- 1 3.0 0.0 1 6
+ 1.62928 0 2 tcp 1040 ------- 1 0.0 3.0 3 8
- 1.62928 0 2 tcp 1040 ------- 1 0.0 3.0 3 8
+ 1.62928 0 2 tcp 1040 ------- 1 0.0 3.0 4 9
r 1.63344 2 0 ack 40 ------- 1 3.0 0.0 2 7
+ 1.63344 0 2 tcp 1040 ------- 1 0.0 3.0 5 10
+ 1.63344 0 2 tcp 1040 ------- 1 0.0 3.0 6 11
- 1.63344 0 2 tcp 1040 ------- 1 0.0 3.0 4 9
- 1.6376 0 2 tcp 1040 ------- 1 0.0 3.0 5 10
- 1.64176 0 2 tcp 1040 ------- 1 0.0 3.0 6 11
r 1.64344 0 2 tcp 1040 ------- 1 0.0 3.0 3 8
+ 1.64344 2 3 tcp 1040 ------- 1 0.0 3.0 3 8
- 1.64344 2 3 tcp 1040 ------- 1 0.0 3.0 3 8
r 1.6476 0 2 tcp 1040 ------- 1 0.0 3.0 4 9
+ 1.6476 2 3 tcp 1040 ------- 1 0.0 3.0 4 9
- 1.6476 2 3 tcp 1040 ------- 1 0.0 3.0 4 9
r 1.65176 0 2 tcp 1040 ------- 1 0.0 3.0 5 10
+ 1.65176 2 3 tcp 1040 ------- 1 0.0 3.0 5 10
- 1.65176 2 3 tcp 1040 ------- 1 0.0 3.0 5 10
r 1.65592 0 2 tcp 1040 ------- 1 0.0 3.0 6 11
+ 1.65592 2 3 tcp 1040 ------- 1 0.0 3.0 6 11
- 1.65592 2 3 tcp 1040 ------- 1 0.0 3.0 6 11
r 1.6676 2 3 tcp 1040 ------- 1 0.0 3.0 3 8
+ 1.6676 3 2 ack 40 ------- 1 3.0 0.0 3 12
- 1.6676 3 2 ack 40 ------- 1 3.0 0.0 3 12
r 1.67176 2 3 tcp 1040 ------- 1 0.0 3.0 4 9
+ 1.67176 3 2 ack 40 ------- 1 3.0 0.0 4 13
- 1.67176 3 2 ack 40 ------- 1 3.0 0.0 4 13
r 1.67592 2 3 tcp 1040 ------- 1 0.0 3.0 5 10
+ 1.67592 3 2 ack 40 ------- 1 3.0 0.0 5 14
- 1.67592 3 2 ack 40 ------- 1 3.0 0.0 5 14
r 1.68008 2 3 tcp 1040 ------- 1 0.0 3.0 6 11
+ 1.68008 3 2 ack 40 ------- 1 3.0 0.0 6 15
- 1.68008 3 2 ack 40 ------- 1 3.0 0.0 6 15
r 1.68776 3 2 ack 40 ------- 1 3.0 0.0 3 12
+ 1.68776 2 0 ack 40 ------- 1 3.0 0.0 3 12
- 1.68776 2 0 ack 40 ------- 1 3.0 0.0 3 12
r 1.69192 3 2 ack 40 ------- 1 3.0 0.0 4 13
+ 1.69192 2 0 ack 40 ------- 1 3.0 0.0 4 13
- 1.69192 2 0 ack 40 ------- 1 3.0 0.0 4 13
r 1.69608 3 2 ack 40 ------- 1 3.0 0.0 5 14
+ 1.69608 2 0 ack 40 ------- 1 3.0 0.0 5 14
- 1.69608 2 0 ack 40 ------- 1 3.0 0.0 5 14
r 1.69792 2 0 ack 40 ------- 1 3.0 0.0 3 12
+ 1.69792 0 2 tcp 1040 ------- 1 0.0 3.0 7 16
- 1.69792 0 2 tcp 1040 ------- 1 0.0 3.0 7 16
+ 1.69792 0 2 tcp 1040 ------- 1 0.0 3.0 8 17
r 1.70024 3 2 ack 40 ------- 1 3.0 0.0 6 15
+ 1.70024 2 0 ack 40 ------- 1 3.0 0.0 6 15
- 1.70024 2 0 ack 40 ------- 1 3.0 0.0 6 15
r 1.70208 2 0 ack 40 ------- 1 3.0 0.0 4 13
+ 1.70208 0 2 tcp 1040 ------- 1 0.0 3.0 9 18
+ 1.70208 0 2 tcp 1040 ------- 1 0.0 3.0 10 19
- 1.70208 0 2 tcp 1040 ------- 1 0.0 3.0 8 17
r 1.70624 2 0 ack 40 ------- 1 3.0 0.0 5 14
+ 1.70624 0 2 tcp 1040 ------- 1 0.0 3.0 11 20
+ 1.70624 0 2 tcp 1040 ------- 1 0.0 3.0 12 21
- 1.70624 0 2 tcp 1040 ------- 1 0.0 3.0 9 18
r 1.7104 2 0 ack 40 ------- 1 3.0 0.0 6 15
+ 1.7104 0 2 tcp 1040 ------- 1 0.0 3.0 13 22
+ 1.7104 0 2 tcp 1040 ------- 1 0.0 3.0 14 23
- 1.7104 0 2 tcp 1040 ------- 1 0.0 3.0 10 19
r 1.71208 0 2 tcp 1040 ------- 1 0.0 3.0 7 16
+ 1.71208 2 3 tcp 1040 ------- 1 0.0 3.0 7 16
- 1.71208 2 3 tcp 1040 ------- 1 0.0 3.0 7 16
- 1.71456 0 2 tcp 1040 ------- 1 0.0 3.0 11 20
r 1.71624 0 2 tcp 1040 ------- 1 0.0 3.0 8 17
+ 1.71624 2 3 tcp 1040 ------- 1 0.0 3.0 8 17
- 1.71624 2 3 tcp 1040 ------- 1 0.0 3.0 8 17
- 1.71872 0 2 tcp 1040 ------- 1 0.0 3.0 12 21
r 1.7204 0 2 tcp 1040 ------- 1 0.0 3.0 9 18
+ 1.7204 2 3 tcp 1040 ------- 1 0.0 3.0 9 18
- 1.7204 2 3 tcp 1040 ------- 1 0.0 3.0 9 18
- 1.72288 0 2 tcp 1040 ------- 1 0.0 3.0 13 22
r 1.72456 0 2 tcp 1040 ------- 1 0.0 3.0 10 19
+ 1.72456 2 3 tcp 1040 ------- 1 0.0 3.0 10 19
- 1.72456 2 3 tcp 1040 ------- 1 0.0 3.0 10 19
- 1.72704 0 2 tcp 1040 ------- 1 0.0 3.0 14 23
r 1.72872 0 2 tcp 1040 ------- 1 0.0 3.0 11 20
+ 1.72872 2 3 tcp 1040 ------- 1 0.0 3.0 11 20
- 1.72872 2 3 tcp 1040 ------- 1 0.0 3.0 11 20
r 1.73288 0 2 tcp 1040 ------- 1 0.0 3.0 12 21
+ 1.73288 2 3 tcp 1040 ------- 1 0.0 3.0 12 21
- 1.73288 2 3 tcp 1040 ------- 1 0.0 3.0 12 21
r 1.73624 2 3 tcp 1040 ------- 1 0.0 3.0 7 16
+ 1.73624 3 2 ack 40 ------- 1 3.0 0.0 7 24
- 1.73624 3 2 ack 40 ------- 1 3.0 0.0 7 24
r 1.73704 0 2 tcp 1040 ------- 1 0.0 3.0 13 22
+ 1.73704 2 3 tcp 1040 ------- 1 0.0 3.0 13 22
- 1.73704 2 3 tcp 1040 ------- 1 0.0 3.0 13 22
r 1.7404 2 3 tcp 1040 ------- 1 0.0 3.0 8 17
+ 1.7404 3 2 ack 40 ------- 1 3.0 0.0 8 25
- 1.7404 3 2 ack 40 ------- 1 3.0 0.0 8 25
r 1.7412 0 2 tcp 1040 ------- 1 0.0 3.0 14 23
+ 1.7412 2 3 tcp 1040 ------- 1 0.0 3.0 14 23
- 1.7412 2 3 tcp 1040 ------- 1 0.0 3.0 14 23
r 1.74456 2 3 tcp 1040 ------- 1 0.0 3.0 9 18
+ 1.74456 3 2 ack 40 ------- 1 3.0 0.0 9 26
- 1.74456 3 2 ack 40 ------- 1 3.0 0.0 9 26
r 1.74872 2 3 tcp 1040 ------- 1 0.0 3.0 10 19
+ 1.74872 3 2 ack 40 ------- 1 3.0 0.0 10 27
- 1.74872 3 2 ack 40 ------- 1 3.0 0.0 10 27
r 1.75288 2 3 tcp 1040 ------- 1 0.0 3.0 11 20
+ 1.75288 3 2 ack 40 ------- 1 3.0 0.0 11 28
- 1.75288 3 2 ack 40 ------- 1 3.0 0.0 11 28
r 1.7564 3 2 ack 40 ------- 1 3.0 0.0 7 24
+ 1.7564 2 0 ack 40 ------- 1 3.0 0.0 7 24
- 1.7564 2 0 ack 40 ------- 1 3.0 0.0 7 24
r 1.75704 2 3 tcp 1040 ------- 1 0.0 3.0 12 21
+ 1.75704 3 2 ack 40 ------- 1 3.0 0.0 12 29
- 1.75704 3 2 ack 40 ------- 1 3.0 0.0 12 29
r 1.76056 3 2 ack 40 ------- 1 3.0 0.0 8 25
+ 1.76056 2 0 ack 40 ------- 1 3.0 0.0 8 25
- 1.76056 2 0 ack 40 ------- 1 3.0 0.0 8 25
r 1.7612 2 3 tcp 1040 ------- 1 0.0 3.0 13 22
+ 1.7612 3 2 ack 40 ------- 1 3.0 0.0 13 30
- 1.7612 3 2 ack 40 ------- 1 3.0 0.0 13 30
r 1.76472 3 2 ack 40 ------- 1 3.0 0.0 9 26
+ 1.76472 2 0 ack 40 ------- 1 3.0 0.0 9 26
- 1.76472 2 0 ack 40 ------- 1 3.0 0.0 9 26
r 1.76536 2 3 tcp 1040 ------- 1 0.0 3.0 14 23
+ 1.76536 3 2 ack 40 ------- 1 3.0 0.0 14 31
- 1.76536 3 2 ack 40 ------- 1 3.0 0.0 14 31
r 1.76656 2 0 ack 40 ------- 1 3.0 0.0 7 24
+ 1.76656 0 2 tcp 1040 ------- 1 0.0 3.0 15 32
- 1.76656 0 2 tcp 1040 ------- 1 0.0 3.0 15 32
+ 1.76656 0 2 tcp 1040 ------- 1 0.0 3.0 16 33
r 1.76888 3 2 ack 40 ------- 1 3.0 0.0 10 27
+ 1.76888 2 0 ack 40 ------- 1 3.0 0.0 10 27
- 1.76888 2 0 ack 40 ------- 1 3.0 0.0 10 27
r 1.77072 2 0 ack 40 ------- 1 3.0 0.0 8 25
+ 1.77072 0 2 tcp 1040 ------- 1 0.0 3.0 17 34
+ 1.77072 0 2 tcp 1040 ------- 1 0.0 3.0 18 35
- 1.77072 0 2 tcp 1040 ------- 1 0.0 3.0 16 33
r 1.77304 3 2 ack 40 ------- 1 3.0 0.0 11 28
+ 1.77304 2 0 ack 40 ------- 1 3.0 0.0 11 28
- 1.77304 2 0 ack 40 ------- 1 3.0 0.0 11 28
r 1.77488 2 0 ack 40 ------- 1 3.0 0.0 9 26
+ 1.77488 0 2 tcp 1040 ------- 1 0.0 3.0 19 36
+ 1.77488 0 2 tcp 1040 ------- 1 0.0 3.0 20 37
- 1.77488 0 2 tcp 1040 ------- 1 0.0 3.0 17 34
r 1.7772 3 2 ack 40 ------- 1 3.0 0.0 12 29
+ 1.7772 2 0 ack 40 ------- 1 3.0 0.0 12 29
- 1.7772 2 0 ack 40 ------- 1 3.0 0.0 12 29
r 1.77904 2 0 ack 40 ------- 1 3.0 0.0 10 27
+ 1.77904 0 2 tcp 1040 ------- 1 0.0 3.0 21 38
+ 1.77904 0 2 tcp 1040 ------- 1 0.0 3.0 22 39
- 1.77904 0 2 tcp 1040 ------- 1 0.0 3.0 18 35
r 1.78072 0 2 tcp 1040 ------- 1 0.0 3.0 15 32
+ 1.78072 2 3 tcp 1040 ------- 1 0.0 3.0 15 32
- 1.78072 2 3 tcp 1040 ------- 1 0.0 3.0 15 32
r 1.78136 3 2 ack 40 ------- 1 3.0 0.0 13 30
+ 1.78136 2 0 ack 40 ------- 1 3.0 0.0 13 30
- 1.78136 2 0 ack 40 ------- 1 3.0 0.0 13 30
r 1.7832 2 0 ack 40 ------- 1 3.0 0.0 11 28
+ 1.7832 0 2 tcp 1040 ------- 1 0.0 3.0 23 40
+ 1.7832 0 2 tcp 1040 ------- 1 0.0 3.0 24 41
- 1.7832 0 2 tcp 1040 ------- 1 0.0 3.0 19 36
r 1.78488 0 2 tcp 1040 ------- 1 0.0 3.0 16 33
+ 1.78488 2 3 tcp 1040 ------- 1 0.0 3.0 16 33
- 1.78488 2 3 tcp 1040 ------- 1 0.0 3.0 16 33
r 1.78552 3 2 ack 40 ------- 1 3.0 0.0 14 31
+ 1.78552 2 0 ack 40 ------- 1 3.0 0.0 14 31
- 1.78552 2 0 ack 40 ------- 1 3.0 0.0 14 31
r 1.78736 2 0 ack 40 ------- 1 3.0 0.0 12 29
+ 1.78736 0 2 tcp 1040 ------- 1 0.0 3.0 25 42
+ 1.78736 0 2 tcp 1040 ------- 1 0.0 3.0 26 43
- 1.78736 0 2 tcp 1040 ------- 1 0.0 3.0 20 37
r 1.78904 0 2 tcp 1040 ------- 1 0.0 3.0 17 34
+ 1.78904 2 3 tcp 1040 ------- 1 0.0 3.0 17 34
- 1.78904 2 3 tcp 1040 ------- 1 0.0 3.0 17 34
r 1.79152 2 0 ack 40 ------- 1 3.0 0.0 13 30
+ 1.79152 0 2 tcp 1040 ------- 1 0.0 3.0 27 44
+ 1.79152 0 2 tcp 1040 ------- 1 0.0 3.0 28 45
- 1.79152 0 2 tcp 1040 ------- 1 0.0 3.0 21 38
r 1.7932 0 2 tcp 1040 ------- 1 0.0 3.0 18 35
+ 1.7932 2 3 tcp 1040 ------- 1 0.0 3.0 18 35
- 1.7932 2 3 tcp 1040 ------- 1 0.0 3.0 18 35
r 1.79568 2 0 ack 40 ------- 1 3.0 0.0 14 31
+ 1.79568 0 2 tcp 1040 ------- 1 0.0 3.0 29 46
+ 1.79568 0 2 tcp 1040 ------- 1 0.0 3.0 30 47
- 1.79568 0 2 tcp 1040 ------- 1 0.0 3.0 22 39
r 1.79736 0 2 tcp 1040 ------- 1 0.0 3.0 19 36
+ 1.79736 2 3 tcp 1040 ------- 1 0.0 3.0 19 36
- 1.79736 2 3 tcp 1040 ------- 1 0.0 3.0 19 36
- 1.79984 0 2 tcp 1040 ------- 1 0.0 3.0 23 40
r 1.80152 0 2 tcp 1040 ------- 1 0.0 3.0 20 37
+ 1.80152 2 3 tcp 1040 ------- 1 0.0 3.0 20 37
- 1.80152 2 3 tcp 1040 ------- 1 0.0 3.0 20 37
- 1.804 0 2 tcp 1040 ------- 1 0.0 3.0 24 41
r 1.80488 2 3 tcp 1040 ------- 1 0.0 3.0 15 32
+ 1.80488 3 2 ack 40 ------- 1 3.0 0.0 15 48
- 1.80488 3 2 ack 40 ------- 1 3.0 0.0 15 48
r 1.80568 0 2 tcp 1040 ------- 1 0.0 3.0 21 38
+ 1.80568 2 3 tcp 1040 ------- 1 0.0 3.0 21 38
- 1.80568 2 3 tcp 1040 ------- 1 0.0 3.0 21 38
- 1.80816 0 2 tcp 1040 ------- 1 0.0 3.0 25 42
r 1.80904 2 3 tcp 1040 ------- 1 0.0 3.0 16 33
+ 1.80904 3 2 ack 40 ------- 1 3.0 0.0 16 49
- 1.80904 3 2 ack 40 ------- 1 3.0 0.0 16 49
r 1.80984 0 2 tcp 1040 ------- 1 0.0 3.0 22 39
+ 1.80984 2 3 tcp 1040 ------- 1 0.0 3.0 22 39
- 1.80984 2 3 tcp 1040 ------- 1 0.0 3.0 22 39
- 1.81232 0 2 tcp 1040 ------- 1 0.0 3.0 26 43
r 1.8132 2 3 tcp 1040 ------- 1 0.0 3.0 17 34
+ 1.8132 3 2 ack 40 ------- 1 3.0 0.0 17 50
- 1.8132 3 2 ack 40 ------- 1 3.0 0.0 17 50
r 1.814 0 2 tcp 1040 ------- 1 0.0 3.0 23 40
+ 1.814 2 3 tcp 1040 ------- 1 0.0 3.0 23 40
- 1.814 2 3 tcp 1040 ------- 1 0.0 3.0 23 40
- 1.81648 0 2 tcp 1040 ------- 1 0.0 3.0 27 44
r 1.81736 2 3 tcp 1040 ------- 1 0.0 3.0 18 35
+ 1.81736 3 2 ack 40 ------- 1 3.0 0.0 18 51
- 1.81736 3 2 ack 40 ------- 1 3.0 0.0 18 51
r 1.81816 0 2 tcp 1040 ------- 1 0.0 3.0 24 41
+ 1.81816 2 3 tcp 1040 ------- 1 0.0 3.0 24 41
- 1.81816 2 3 tcp 1040 ------- 1 0.0 3.0 24 41
- 1.82064 0 2 tcp 1040 ------- 1 0.0 3.0 28 45
r 1.82152 2 3 tcp 1040 ------- 1 0.0 3.0 19 36
+ 1.82152 3 2 ack 40 ------- 1 3.0 0.0 19 52
- 1.82152 3 2 ack 40 ------- 1 3.0 0.0 19 52
r 1.82232 0 2 tcp 1040 ------- 1 0.0 3.0 25 42
+ 1.82232 2 3 tcp 1040 ------- 1 0.0 3.0 25 42
- 1.82232 2 3 tcp 1040 ------- 1 0.0 3.0 25 42
- 1.8248 0 2 tcp 1040 ------- 1 0.0 3.0 29 46
r 1.82504 3 2 ack 40 ------- 1 3.0 0.0 15 48
+ 1.82504 2 0 ack 40 ------- 1 3.0 0.0 15 48
- 1.82504 2 0 ack 40 ------- 1 3.0 0.0 15 48
r 1.82568 2 3 tcp 1040 ------- 1 0.0 3.0 20 37
+ 1.82568 3 2 ack 40 ------- 1 3.0 0.0 20 53
- 1.82568 3 2 ack 40 ------- 1 3.0 0.0 20 53
r 1.82648 0 2 tcp 1040 ------- 1 0.0 3.0 26 43
+ 1.82648 2 3 tcp 1040 ------- 1 0.0 3.0 26 43
- 1.82648 2 3 tcp 1040 ------- 1 0.0 3.0 26 43
- 1.82896 0 2 tcp 1040 ------- 1 0.0 3.0 30 47
r 1.8292 3 2 ack 40 ------- 1 3.0 0.0 16 49
+ 1.8292 2 0 ack 40 ------- 1 3.0 0.0 16 49
- 1.8292 2 0 ack 40 ------- 1 3.0 0.0 16 49
r 1.82984 2 3 tcp 1040 ------- 1 0.0 3.0 21 38
+ 1.82984 3 2 ack 40 ------- 1 3.0 0.0 21 54
- 1.82984 3 2 ack 40 ------- 1 3.0 0.0 21 54
r 1.83064 0 2 tcp 1040 ------- 1 0.0 3.0 27 44
+ 1.83064 2 3 tcp 1040 ------- 1 0.0 3.0 27 44
- 1.83064 2 3 tcp 1040 ------- 1 0.0 3.0 27 44
r 1.83336 3 2 ack 40 ------- 1 3.0 0.0 17 50
+ 1.83336 2 0 ack 40 ------- 1 3.0 0.0 17 50
- 1.83336 2 0 ack 40 ------- 1 3.0 0.0 17 50
r 1.834 2 3 tcp 1040 ------- 1 0.0 3.0 22 39
+ 1.834 3 2 ack 40 ------- 1 3.0 0.0 22 55
- 1.834 3 2 ack 40 ------- 1 3.0 0.0 22 55
r 1.8348 0 2 tcp 1040 ------- 1 0.0 3.0 28 45
+ 1.8348 2 3 tcp 1040 ------- 1 0.0 3.0 28 45
- 1.8348 2 3 tcp 1040 ------- 1 0.0 3.0 28 45
r 1.8352 2 0 ack 40 ------- 1 3.0 0.0 15 48
+ 1.8352 0 2 tcp 1040 ------- 1 0.0 3.0 31 56
- 1.8352 0 2 tcp 1040 ------- 1 0.0 3.0 31 56
+ 1.8352 0 2 tcp 1040 ------- 1 0.0 3.0 32 57
r 1.83752 3 2 ack 40 ------- 1 3.0 0.0 18 51
+ 1.83752 2 0 ack 40 ------- 1 3.0 0.0 18 51
- 1.83752 2 0 ack 40 ------- 1 3.0 0.0 18 51
r 1.83816 2 3 tcp 1040 ------- 1 0.0 3.0 23 40
+ 1.83816 3 2 ack 40 ------- 1 3.0 0.0 23 58
- 1.83816 3 2 ack 40 ------- 1 3.0 0.0 23 58
r 1.83896 0 2 tcp 1040 ------- 1 0.0 3.0 29 46
+ 1.83896 2 3 tcp 1040 ------- 1 0.0 3.0 29 46
- 1.83896 2 3 tcp 1040 ------- 1 0.0 3.0 29 46
r 1.83936 2 0 ack 40 ------- 1 3.0 0.0 16 49
+ 1.83936 0 2 tcp 1040 ------- 1 0.0 3.0 33 59
+ 1.83936 0 2 tcp 1040 ------- 1 0.0 3.0 34 60
- 1.83936 0 2 tcp 1040 ------- 1 0.0 3.0 32 57
r 1.84168 3 2 ack 40 ------- 1 3.0 0.0 19 52
+ 1.84168 2 0 ack 40 ------- 1 3.0 0.0 19 52
- 1.84168 2 0 ack 40 ------- 1 3.0 0.0 19 52
r 1.84232 2 3 tcp 1040 ------- 1 0.0 3.0 24 41
+ 1.84232 3 2 ack 40 ------- 1 3.0 0.0 24 61
- 1.84232 3 2 ack 40 ------- 1 3.0 0.0 24 61
r 1.84312 0 2 tcp 1040 ------- 1 0.0 3.0 30 47
+ 1.84312 2 3 tcp 1040 ------- 1 0.0 3.0 30 47
- 1.84312 2 3 tcp 1040 ------- 1 0.0 3.0 30 47
r 1.84352 2 0 ack 40 ------- 1 3.0 0.0 17 50
+ 1.84352 0 2 tcp 1040 ------- 1 0.0 3.0 35 62
+ 1.84352 0 2 tcp 1040 ------- 1 0.0 3.0 36 63
- 1.84352 0 2 tcp 1040 ------- 1 0.0 3.0 33 59
r 1.84584 3 2 ack 40 ------- 1 3.0 0.0 20 53
+ 1.84584 2 0 ack 40 ------- 1 3.0 0.0 20 53
- 1.84584 2 0 ack 40 ------- 1 3.0 0.0 20 53
r 1.84648 2 3 tcp 1040 ------- 1 0.0 3.0 25 42
+ 1.84648 3 2 ack 40 ------- 1 3.0 0.0 25 64
- 1.84648 3 2 ack 40 ------- 1 3.0 0.0 25 64
r 1.84768 2 0 ack 40 ------- 1 3.0 0.0 18 51
+ 1.84768 0 2 tcp 1040 ------- 1 0.0 3.0 37 65
+ 1.84768 0 2 tcp 1040 ------- 1 0.0 3.0 38 66
- 1.84768 0 2 tcp 1040 ------- 1 0.0 3.0 34 60
r 1.84936 0 2 tcp 1040 ------- 1 0.0 3.0 31 56
+ 1.84936 2 3 tcp 1040 ------- 1 0.0 3.0 31 56
- 1.84936 2 3 tcp 1040 ------- 1 0.0 3.0 31 56
r 1.85 3 2 ack 40 ------- 1 3.0 0.0 21 54
+ 1.85 2 0 ack 40 ------- 1 3.0 0.0 21 54
- 1.85 2 0 ack 40 ------- 1 3.0 0.0 21 54
r 1.85064 2 3 tcp 1040 ------- 1 0.0 3.0 26 43
+ 1.85064 3 2 ack 40 ------- 1 3.0 0.0 26 67
- 1.85064 3 2 ack 40 ------- 1 3.0 0.0 26 67
r 1.85184 2 0 ack 40 ------- 1 3.0 0.0 19 52
+ 1.85184 0 2 tcp 1040 ------- 1 0.0 3.0 39 68
- 1.85184 0 2 tcp 1040 ------- 1 0.0 3.0 35 62
r 1.85352 0 2 tcp 1040 ------- 1 0.0 3.0 32 57
+ 1.85352 2 3 tcp 1040 ------- 1 0.0 3.0 32 57
- 1.85352 2 3 tcp 1040 ------- 1 0.0 3.0 32 57
r 1.85416 3 2 ack 40 ------- 1 3.0 0.0 22 55
+ 1.85416 2 0 ack 40 ------- 1 3.0 0.0 22 55
- 1.85416 2 0 ack 40 ------- 1 3.0 0.0 22 55
r 1.8548 2 3 tcp 1040 ------- 1 0.0 3.0 27 44
+ 1.8548 3 2 ack 40 ------- 1 3.0 0.0 27 69
- 1.8548 3 2 ack 40 ------- 1 3.0 0.0 27 69
r 1.856 2 0 ack 40 ------- 1 3.0 0.0 20 53
+ 1.856 0 2 tcp 1040 ------- 1 0.0 3.0 40 70
- 1.856 0 2 tcp 1040 ------- 1 0.0 3.0 36 63
r 1.85768 0 2 tcp 1040 ------- 1 0.0 3.0 33 59
+ 1.85768 2 3 tcp 1040 ------- 1 0.0 3.0 33 59
- 1.85768 2 3 tcp 1040 ------- 1 0.0 3.0 33 59
r 1.85832 3 2 ack 40 ------- 1 3.0 0.0 23 58
+ 1.85832 2 0 ack 40 ------- 1 3.0 0.0 23 58
- 1.85832 2 0 ack 40 ------- 1 3.0 0.0 23 58
r 1.85896 2 3 tcp 1040 ------- 1 0.0 3.0 28 45
+ 1.85896 3 2 ack 40 ------- 1 3.0 0.0 28 71
- 1.85896 3 2 ack 40 ------- 1 3.0 0.0 28 71
r 1.86016 2 0 ack 40 ------- 1 3.0 0.0 21 54
+ 1.86016 0 2 tcp 1040 ------- 1 0.0 3.0 41 72
- 1.86016 0 2 tcp 1040 ------- 1 0.0 3.0 37 65
r 1.86184 0 2 tcp 1040 ------- 1 0.0 3.0 34 60
+ 1.86184 2 3 tcp 1040 ------- 1 0.0 3.0 34 60
- 1.86184 2 3 tcp 1040 ------- 1 0.0 3.0 34 60
r 1.86248 3 2 ack 40 ------- 1 3.0 0.0 24 61
+ 1.86248 2 0 ack 40 ------- 1 3.0 0.0 24 61
- 1.86248 2 0 ack 40 ------- 1 3.0 0.0 24 61
r 1.86312 2 3 tcp 1040 ------- 1 0.0 3.0 29 46
+ 1.86312 3 2 ack 40 ------- 1 3.0 0.0 29 73
- 1.86312 3 2 ack 40 ------- 1 3.0 0.0 29 73
r 1.86432 2 0 ack 40 ------- 1 3.0 0.0 22 55
+ 1.86432 0 2 tcp 1040 ------- 1 0.0 3.0 42 74
- 1.86432 0 2 tcp 1040 ------- 1 0.0 3.0 38 66
r 1.866 0 2 tcp 1040 ------- 1 0.0 3.0 35 62
+ 1.866 2 3 tcp 1040 ------- 1 0.0 3.0 35 62
- 1.866 2 3 tcp 1040 ------- 1 0.0 3.0 35 62
r 1.86664 3 2 ack 40 ------- 1 3.0 0.0 25 64
+ 1.86664 2 0 ack 40 ------- 1 3.0 0.0 25 64
- 1.86664 2 0 ack 40 ------- 1 3.0 0.0 25 64
r 1.86728 2 3 tcp 1040 ------- 1 0.0 3.0 30 47
+ 1.86728 3 2 ack 40 ------- 1 3.0 0.0 30 75
- 1.86728 3 2 ack 40 ------- 1 3.0 0.0 30 75
r 1.86848 2 0 ack 40 ------- 1 3.0 0.0 23 58
+ 1.86848 0 2 tcp 1040 ------- 1 0.0 3.0 43 76
- 1.86848 0 2 tcp 1040 ------- 1 0.0 3.0 39 68
r 1.87016 0 2 tcp 1040 ------- 1 0.0 3.0 36 63
+ 1.87016 2 3 tcp 1040 ------- 1 0.0 3.0 36 63
- 1.87016 2 3 tcp 1040 ------- 1 0.0 3.0 36 63
r 1.8708 3 2 ack 40 ------- 1 3.0 0.0 26 67
+ 1.8708 2 0 ack 40 ------- 1 3.0 0.0 26 67
- 1.8708 2 0 ack 40 ------- 1 3.0 0.0 26 67
r 1.87264 2 0 ack 40 ------- 1 3.0 0.0 24 61
+ 1.87264 0 2 tcp 1040 ------- 1 0.0 3.0 44 77
- 1.87264 0 2 tcp 1040 ------- 1 0.0 3.0 40 70
r 1.87352 2 3 tcp 1040 ------- 1 0.0 3.0 31 56
+ 1.87352 3 2 ack 40 ------- 1 3.0 0.0 31 78
- 1.87352 3 2 ack 40 ------- 1 3.0 0.0 31 78
r 1.87432 0 2 tcp 1040 ------- 1 0.0 3.0 37 65
+ 1.87432 2 3 tcp 1040 ------- 1 0.0 3.0 37 65
- 1.87432 2 3 tcp 1040 ------- 1 0.0 3.0 37 65
r 1.87496 3 2 ack 40 ------- 1 3.0 0.0 27 69
+ 1.87496 2 0 ack 40 ------- 1 3.0 0.0 27 69
- 1.87496 2 0 ack 40 ------- 1 3.0 0.0 27 69
r 1.8768 2 0 ack 40 ------- 1 3.0 0.0 25 64
+ 1.8768 0 2 tcp 1040 ------- 1 0.0 3.0 45 79
- 1.8768 0 2 tcp 1040 ------- 1 0.0 3.0 41 72
r 1.87768 2 3 tcp 1040 ------- 1 0.0 3.0 32 57
+ 1.87768 3 2 ack 40 ------- 1 3.0 0.0 32 80
- 1.87768 3 2 ack 40 ------- 1 3.0 0.0 32 80
r 1.87848 0 2 tcp 1040 ------- 1 0.0 3.0 38 66
+ 1.87848 2 3 tcp 1040 ------- 1 0.0 3.0 38 66
- 1.87848 2 3 tcp 1040 ------- 1 0.0 3.0 38 66
r 1.87912 3 2 ack 40 ------- 1 3.0 0.0 28 71
+ 1.87912 2 0 ack 40 ------- 1 3.0 0.0 28 71
- 1.87912 2 0 ack 40 ------- 1 3.0 0.0 28 71
r 1.88096 2 0 ack 40 ------- 1 3.0 0.0 26 67
+ 1.88096 0 2 tcp 1040 ------- 1 0.0 3.0 46 81
- 1.88096 0 2 tcp 1040 ------- 1 0.0 3.0 42 74
r 1.88184 2 3 tcp 1040 ------- 1 0.0 3.0 33 59
+ 1.88184 3 2 ack 40 ------- 1 3.0 0.0 33 82
- 1.88184 3 2 ack 40 ------- 1 3.0 0.0 33 82
r 1.88264 0 2 tcp 1040 ------- 1 0.0 3.0 39 68
+ 1.88264 2 3 tcp 1040 ------- 1 0.0 3.0 39 68
- 1.88264 2 3 tcp 1040 ------- 1 0.0 3.0 39 68
r 1.88328 3 2 ack 40 ------- 1 3.0 0.0 29 73
+ 1.88328 2 0 ack 40 ------- 1 3.0 0.0 29 73
- 1.88328 2 0 ack 40 ------- 1 3.0 0.0 29 73
r 1.88512 2 0 ack 40 ------- 1 3.0 0.0 27 69
+ 1.88512 0 2 tcp 1040 ------- 1 0.0 3.0 47 83
- 1.88512 0 2 tcp 1040 ------- 1 0.0 3.0 43 76
r 1.886 2 3 tcp 1040 ------- 1 0.0 3.0 34 60
+ 1.886 3 2 ack 40 ------- 1 3.0 0.0 34 84
- 1.886 3 2 ack 40 ------- 1 3.0 0.0 34 84
r 1.8868 0 2 tcp 1040 ------- 1 0.0 3.0 40 70
+ 1.8868 2 3 tcp 1040 ------- 1 0.0 3.0 40 70
- 1.8868 2 3 tcp 1040 ------- 1 0.0 3.0 40 70
r 1.88744 3 2 ack 40 ------- 1 3.0 0.0 30 75
+ 1.88744 2 0 ack 40 ------- 1 3.0 0.0 30 75
- 1.88744 2 0 ack 40 ------- 1 3.0 0.0 30 75
r 1.88928 2 0 ack 40 ------- 1 3.0 0.0 28 71
+ 1.88928 0 2 tcp 1040 ------- 1 0.0 3.0 48 85
- 1.88928 0 2 tcp 1040 ------- 1 0.0 3.0 44 77
r 1.89016 2 3 tcp 1040 ------- 1 0.0 3.0 35 62
+ 1.89016 3 2 ack 40 ------- 1 3.0 0.0 35 86
- 1.89016 3 2 ack 40 ------- 1 3.0 0.0 35 86
r 1.89096 0 2 tcp 1040 ------- 1 0.0 3.0 41 72
+ 1.89096 2 3 tcp 1040 ------- 1 0.0 3.0 41 72
- 1.89096 2 3 tcp 1040 ------- 1 0.0 3.0 41 72
r 1.89344 2 0 ack 40 ------- 1 3.0 0.0 29 73
+ 1.89344 0 2 tcp 1040 ------- 1 0.0 3.0 49 87
- 1.89344 0 2 tcp 1040 ------- 1 0.0 3.0 45 79
r 1.89368 3 2 ack 40 ------- 1 3.0 0.0 31 78
+ 1.89368 2 0 ack 40 ------- 1 3.0 0.0 31 78
- 1.89368 2 0 ack 40 ------- 1 3.0 0.0 31 78
r 1.89432 2 3 tcp 1040 ------- 1 0.0 3.0 36 63
+ 1.89432 3 2 ack 40 ------- 1 3.0 0.0 36 88
- 1.89432 3 2 ack 40 ------- 1 3.0 0.0 36 88
r 1.89512 0 2 tcp 1040 ------- 1 0.0 3.0 42 74
+ 1.89512 2 3 tcp 1040 ------- 1 0.0 3.0 42 74
- 1.89512 2 3 tcp 1040 ------- 1 0.0 3.0 42 74
r 1.8976 2 0 ack 40 ------- 1 3.0 0.0 30 75
+ 1.8976 0 2 tcp 1040 ------- 1 0.0 3.0 50 89
- 1.8976 0 2 tcp 1040 ------- 1 0.0 3.0 46 81
r 1.89784 3 2 ack 40 ------- 1 3.0 0.0 32 80
+ 1.89784 2 0 ack 40 ------- 1 3.0 0.0 32 80
- 1.89784 2 0 ack 40 ------- 1 3.0 0.0 32 80
r 1.89848 2 3 tcp 1040 ------- 1 0.0 3.0 37 65
+ 1.89848 3 2 ack 40 ------- 1 3.0 0.0 37 90
- 1.89848 3 2 ack 40 ------- 1 3.0 0.0 37 90
r 1.89928 0 2 tcp 1040 ------- 1 0.0 3.0 43 76
+ 1.89928 2 3 tcp 1040 ------- 1 0.0 3.0 43 76
- 1.89928 2 3 tcp 1040 ------- 1 0.0 3.0 43 76
- 1.90176 0 2 tcp 1040 ------- 1 0.0 3.0 47 83
r 1.902 3 2 ack 40 ------- 1 3.0 0.0 33 82
+ 1.902 2 0 ack 40 ------- 1 3.0 0.0 33 82
- 1.902 2 0 ack 40 ------- 1 3.0 0.0 33 82
r 1.90264 2 3 tcp 1040 ------- 1 0.0 3.0 38 66
+ 1.90264 3 2 ack 40 ------- 1 3.0 0.0 38 91
- 1.90264 3 2 ack 40 ------- 1 3.0 0.0 38 91
r 1.90344 0 2 tcp 1040 ------- 1 0.0 3.0 44 77
+ 1.90344 2 3 tcp 1040 ------- 1 0.0 3.0 44 77
- 1.90344 2 3 tcp 1040 ------- 1 0.0 3.0 44 77
r 1.90384 2 0 ack 40 ------- 1 3.0 0.0 31 78
+ 1.90384 0 2 tcp 1040 ------- 1 0.0 3.0 51 92
- 1.90592 0 2 tcp 1040 ------- 1 0.0 3.0 48 85
r 1.90616 3 2 ack 40 ------- 1 3.0 0.0 34 84
+ 1.90616 2 0 ack 40 ------- 1 3.0 0.0 34 84
- 1.90616 2 0 ack 40 ------- 1 3.0 0.0 34 84
r 1.9068 2 3 tcp 1040 ------- 1 0.0 3.0 39 68
+ 1.9068 3 2 ack 40 ------- 1 3.0 0.0 39 93
- 1.9068 3 2 ack 40 ------- 1 3.0 0.0 39 93
r 1.9076 0 2 tcp 1040 ------- 1 0.0 3.0 45 79
+ 1.9076 2 3 tcp 1040 ------- 1 0.0 3.0 45 79
- 1.9076 2 3 tcp 1040 ------- 1 0.0 3.0 45 79
r 1.908 2 0 ack 40 ------- 1 3.0 0.0 32 80
+ 1.908 0 2 tcp 1040 ------- 1 0.0 3.0 52 94
- 1.91008 0 2 tcp 1040 ------- 1 0.0 3.0 49 87
r 1.91032 3 2 ack 40 ------- 1 3.0 0.0 35 86
+ 1.91032 2 0 ack 40 ------- 1 3.0 0.0 35 86
- 1.91032 2 0 ack 40 ------- 1 3.0 0.0 35 86
r 1.91096 2 3 tcp 1040 ------- 1 0.0 3.0 40 70
+ 1.91096 3 2 ack 40 ------- 1 3.0 0.0 40 95
- 1.91096 3 2 ack 40 ------- 1 3.0 0.0 40 95
r 1.91176 0 2 tcp 1040 ------- 1 0.0 3.0 46 81
+ 1.91176 2 3 tcp 1040 ------- 1 0.0 3.0 46 81
- 1.91176 2 3 tcp 1040 ------- 1 0.0 3.0 46 81
r 1.91216 2 0 ack 40 ------- 1 3.0 0.0 33 82
+ 1.91216 0 2 tcp 1040 ------- 1 0.0 3.0 53 96
- 1.91424 0 2 tcp 1040 ------- 1 0.0 3.0 50 89
r 1.91448 3 2 ack 40 ------- 1 3.0 0.0 36 88
+ 1.91448 2 0 ack 40 ------- 1 3.0 0.0 36 88
- 1.91448 2 0 ack 40 ------- 1 3.0 0.0 36 88
r 1.91512 2 3 tcp 1040 ------- 1 0.0 3.0 41 72
+ 1.91512 3 2 ack 40 ------- 1 3.0 0.0 41 97
- 1.91512 3 2 ack 40 ------- 1 3.0 0.0 41 97
r 1.91592 0 2 tcp 1040 ------- 1 0.0 3.0 47 83
+ 1.91592 2 3 tcp 1040 ------- 1 0.0 3.0 47 83
- 1.91592 2 3 tcp 1040 ------- 1 0.0 3.0 47 83
r 1.91632 2 0 ack 40 ------- 1 3.0 0.0 34 84
+ 1.91632 0 2 tcp 1040 ------- 1 0.0 3.0 54 98
- 1.9184 0 2 tcp 1040 ------- 1 0.0 3.0 51 92
r 1.91864 3 2 ack 40 ------- 1 3.0 0.0 37 90
+ 1.91864 2 0 ack 40 ------- 1 3.0 0.0 37 90
- 1.91864 2 0 ack 40 ------- 1 3.0 0.0 37 90
r 1.91928 2 3 tcp 1040 ------- 1 0.0 3.0 42 74
+ 1.91928 3 2 ack 40 ------- 1 3.0 0.0 42 99
- 1.91928 3 2 ack 40 ------- 1 3.0 0.0 42 99
r 1.92008 0 2 tcp 1040 ------- 1 0.0 3.0 48 85
+ 1.92008 2 3 tcp 1040 ------- 1 0.0 3.0 48 85
- 1.92008 2 3 tcp 1040 ------- 1 0.0 3.0 48 85
r 1.92048 2 0 ack 40 ------- 1 3.0 0.0 35 86
+ 1.92048 0 2 tcp 1040 ------- 1 0.0 3.0 55 100
- 1.92256 0 2 tcp 1040 ------- 1 0.0 3.0 52 94
r 1.9228 3 2 ack 40 ------- 1 3.0 0.0 38 91
+ 1.9228 2 0 ack 40 ------- 1 3.0 0.0 38 91
- 1.9228 2 0 ack 40 ------- 1 3.0 0.0 38 91
r 1.92344 2 3 tcp 1040 ------- 1 0.0 3.0 43 76
+ 1.92344 3 2 ack 40 ------- 1 3.0 0.0 43 101
- 1.92344 3 2 ack 40 ------- 1 3.0 0.0 43 101
r 1.92424 0 2 tcp 1040 ------- 1 0.0 3.0 49 87
+ 1.92424 2 3 tcp 1040 ------- 1 0.0 3.0 49 87
- 1.92424 2 3 tcp 1040 ------- 1 0.0 3.0 49 87
r 1.92464 2 0 ack 40 ------- 1 3.0 0.0 36 88
+ 1.92464 0 2 tcp 1040 ------- 1 0.0 3.0 56 102
- 1.92672 0 2 tcp 1040 ------- 1 0.0 3.0 53 96
r 1.92696 3 2 ack 40 ------- 1 3.0 0.0 39 93
+ 1.92696 2 0 ack 40 ------- 1 3.0 0.0 39 93
- 1.92696 2 0 ack 40 ------- 1 3.0 0.0 39 93
r 1.9276 2 3 tcp 1040 ------- 1 0.0 3.0 44 77
+ 1.9276 3 2 ack 40 ------- 1 3.0 0.0 44 103
- 1.9276 3 2 ack 40 ------- 1 3.0 0.0 44 103
r 1.9284 0 2 tcp 1040 ------- 1 0.0 3.0 50 89
+ 1.9284 2 3 tcp 1040 ------- 1 0.0 3.0 50 89
- 1.9284 2 3 tcp 1040 ------- 1 0.0 3.0 50 89
r 1.9288 2 0 ack 40 ------- 1 3.0 0.0 37 90
+ 1.9288 0 2 tcp 1040 ------- 1 0.0 3.0 57 104
- 1.93088 0 2 tcp 1040 ------- 1 0.0 3.0 54 98
r 1.93112 3 2 ack 40 ------- 1 3.0 0.0 40 95
+ 1.93112 2 0 ack 40 ------- 1 3.0 0.0 40 95
- 1.93112 2 0 ack 40 ------- 1 3.0 0.0 40 95
r 1.93176 2 3 tcp 1040 ------- 1 0.0 3.0 45 79
+ 1.93176 3 2 ack 40 ------- 1 3.0 0.0 45 105
- 1.93176 3 2 ack 40 ------- 1 3.0 0.0 45 105
r 1.93256 0 2 tcp 1040 ------- 1 0.0 3.0 51 92
+ 1.93256 2 3 tcp 1040 ------- 1 0.0 3.0 51 92
- 1.93256 2 3 tcp 1040 ------- 1 0.0 3.0 51 92
r 1.93296 2 0 ack 40 ------- 1 3.0 0.0 38 91
+ 1.93296 0 2 tcp 1040 ------- 1 0.0 3.0 58 106
- 1.93504 0 2 tcp 1040 ------- 1 0.0 3.0 55 100
r 1.93528 3 2 ack 40 ------- 1 3.0 0.0 41 97
+ 1.93528 2 0 ack 40 ------- 1 3.0 0.0 41 97
- 1.93528 2 0 ack 40 ------- 1 3.0 0.0 41 97
r 1.93592 2 3 tcp 1040 ------- 1 0.0 3.0 46 81
+ 1.93592 3 2 ack 40 ------- 1 3.0 0.0 46 107
- 1.93592 3 2 ack 40 ------- 1 3.0 0.0 46 107
r 1.93672 0 2 tcp 1040 ------- 1 0.0 3.0 52 94
+ 1.93672 2 3 tcp 1040 ------- 1 0.0 3.0 52 94
- 1.93672 2 3 tcp 1040 ------- 1 0.0 3.0 52 94
r 1.93712 2 0 ack 40 ------- 1 3.0 0.0 39 93
+ 1.93712 0 2 tcp 1040 ------- 1 0.0 3.0 59 108
- 1.9392 0 2 tcp 1040 ------- 1 0.0 3.0 56 102
r 1.93944 3 2 ack 40 ------- 1 3.0 0.0 42 99
+ 1.93944 2 0 ack 40 ------- 1 3.0 0.0 42 99
- 1.93944 2 0 ack 40 ------- 1 3.0 0.0 42 99
r 1.94008 2 3 tcp 1040 ------- 1 0.0 3.0 47 83
+ 1.94008 3 2 ack 40 ------- 1 3.0 0.0 47 109
- 1.94008 3 2 ack 40 ------- 1 3.0 0.0 47 109
r 1.94088 0 2 tcp 1040 ------- 1 0.0 3.0 53 96
+ 1.94088 2 3 tcp 1040 ------- 1 0.0 3.0 53 96
- 1.94088 2 3 tcp 1040 ------- 1 0.0 3.0 53 96
r 1.94128 2 0 ack 40 ------- 1 3.0 0.0 40 95
+ 1.94128 0 2 tcp 1040 ------- 1 0.0 3.0 60 110
- 1.94336 0 2 tcp 1040 ------- 1 0.0 3.0 57 104
r 1.9436 3 2 ack 40 ------- 1 3.0 0.0 43 101
+ 1.9436 2 0 ack 40 ------- 1 3.0 0.0 43 101
- 1.9436 2 0 ack 40 ------- 1 3.0 0.0 43 101
r 1.94424 2 3 tcp 1040 ------- 1 0.0 3.0 48 85
+ 1.94424 3 2 ack 40 ------- 1 3.0 0.0 48 111
- 1.94424 3 2 ack 40 ------- 1 3.0 0.0 48 111
r 1.94504 0 2 tcp 1040 ------- 1 0.0 3.0 54 98
+ 1.94504 2 3 tcp 1040 ------- 1 0.0 3.0 54 98
- 1.94504 2 3 tcp 1040 ------- 1 0.0 3.0 54 98
r 1.94544 2 0 ack 40 ------- 1 3.0 0.0 41 97
+ 1.94544 0 2 tcp 1040 ------- 1 0.0 3.0 61 112
- 1.94752 0 2 tcp 1040 ------- 1 0.0 3.0 58 106
r 1.94776 3 2 ack 40 ------- 1 3.0 0.0 44 103
+ 1.94776 2 0 ack 40 ------- 1 3.0 0.0 44 103
- 1.94776 2 0 ack 40 ------- 1 3.0 0.0 44 103
r 1.9484 2 3 tcp 1040 ------- 1 0.0 3.0 49 87
+ 1.9484 3 2 ack 40 ------- 1 3.0 0.0 49 113
- 1.9484 3 2 ack 40 ------- 1 3.0 0.0 49 113
r 1.9492 0 2 tcp 1040 ------- 1 0.0 3.0 55 100
+ 1.9492 2 3 tcp 1040 ------- 1 0.0 3.0 55 100
- 1.9492 2 3 tcp 1040 ------- 1 0.0 3.0 55 100
r 1.9496 2 0 ack 40 ------- 1 3.0 0.0 42 99
+ 1.9496 0 2 tcp 1040 ------- 1 0.0 3.0 62 114
- 1.95168 0 2 tcp 1040 ------- 1 0.0 3.0 59 108
r 1.95192 3 2 ack 40 ------- 1 3.0 0.0 45 105
+ 1.95192 2 0 ack 40 ------- 1 3.0 0.0 45 105
- 1.95192 2 0 ack 40 ------- 1 3.0 0.0 45 105
r 1.95256 2 3 tcp 1040 ------- 1 0.0 3.0 50 89
+ 1.95256 3 2 ack 40 ------- 1 3.0 0.0 50 115
- 1.95256 3 2 ack 40 ------- 1 3.0 0.0 50 115
r 1.95336 0 2 tcp 1040 ------- 1 0.0 3.0 56 102
+ 1.95336 2 3 tcp 1040 ------- 1 0.0 3.0 56 102
- 1.95336 2 3 tcp 1040 ------- 1 0.0 3.0 56 102
r 1.95376 2 0 ack 40 ------- 1 3.0 0.0 43 101
+ 1.95376 0 2 tcp 1040 ------- 1 0.0 3.0 63 116
- 1.95584 0 2 tcp 1040 ------- 1 0.0 3.0 60 110
r 1.95608 3 2 ack 40 ------- 1 3.0 0.0 46 107
+ 1.95608 2 0 ack 40 ------- 1 3.0 0.0 46 107
- 1.95608 2 0 ack 40 ------- 1 3.0 0.0 46 107
r 1.95672 2 3 tcp 1040 ------- 1 0.0 3.0 51 92
+ 1.95672 3 2 ack 40 ------- 1 3.0 0.0 51 117
- 1.95672 3 2 ack 40 ------- 1 3.0 0.0 51 117
r 1.95752 0 2 tcp 1040 ------- 1 0.0 3.0 57 104
+ 1.95752 2 3 tcp 1040 ------- 1 0.0 3.0 57 104
- 1.95752 2 3 tcp 1040 ------- 1 0.0 3.0 57 104
r 1.95792 2 0 ack 40 ------- 1 3.0 0.0 44 103
+ 1.95792 0 2 tcp 1040 ------- 1 0.0 3.0 64 118
- 1.96 0 2 tcp 1040 ------- 1 0.0 3.0 61 112
r 1.96024 3 2 ack 40 ------- 1 3.0 0.0 47 109
+ 1.96024 2 0 ack 40 ------- 1 3.0 0.0 47 109