+ 0.5 0 1 cbr 500 ------- 0 0.0 1.0 0 0
- 0.5 0 1 cbr 500 ------- 0 0.0 1.0 0 0
+ 0.5 1 2 cbr 500 ------- 0 1.1 2.0 0 1
- 0.5 1 2 cbr 500 ------- 0 1.1 2.0 0 1
+ 0.5 2 3 cbr 500 ------- 0 2.1 3.0 0 2
- 0.5 2 3 cbr 500 ------- 0 2.1 3.0 0 2
+ 0.5 3 0 cbr 500 ------- 0 3.1 0.1 0 3
- 0.5 3 0 cbr 500 ------- 0 3.1 0.1 0 3
+ 0.508929 2 3 cbr 500 ------- 0 2.1 3.0 1 4
- 0.508929 2 3 cbr 500 ------- 0 2.1 3.0 1 4
+ 0.511905 0 1 cbr 500 ------- 0 0.0 1.0 1 5
- 0.511905 0 1 cbr 500 ------- 0 0.0 1.0 1 5
+ 0.511905 1 2 cbr 500 ------- 0 1.1 2.0 1 6
- 0.511905 1 2 cbr 500 ------- 0 1.1 2.0 1 6
+ 0.511905 3 0 cbr 500 ------- 0 3.1 0.1 1 7
- 0.511905 3 0 cbr 500 ------- 0 3.1 0.1 1 7
r 0.514 0 1 cbr 500 ------- 0 0.0 1.0 0 0
r 0.514 1 2 cbr 500 ------- 0 1.1 2.0 0 1
r 0.514 2 3 cbr 500 ------- 0 2.1 3.0 0 2
r 0.514 3 0 cbr 500 ------- 0 3.1 0.1 0 3
+ 0.517857 2 3 cbr 500 ------- 0 2.1 3.0 2 8
- 0.517857 2 3 cbr 500 ------- 0 2.1 3.0 2 8
r 0.522929 2 3 cbr 500 ------- 0 2.1 3.0 1 4
+ 0.52381 0 1 cbr 500 ------- 0 0.0 1.0 2 9
- 0.52381 0 1 cbr 500 ------- 0 0.0 1.0 2 9
+ 0.52381 1 2 cbr 500 ------- 0 1.1 2.0 2 10
- 0.52381 1 2 cbr 500 ------- 0 1.1 2.0 2 10
+ 0.52381 3 0 cbr 500 ------- 0 3.1 0.1 2 11
- 0.52381 3 0 cbr 500 ------- 0 3.1 0.1 2 11
r 0.525905 0 1 cbr 500 ------- 0 0.0 1.0 1 5
r 0.525905 1 2 cbr 500 ------- 0 1.1 2.0 1 6
r 0.525905 3 0 cbr 500 ------- 0 3.1 0.1 1 7
+ 0.526786 2 3 cbr 500 ------- 0 2.1 3.0 3 12
- 0.526786 2 3 cbr 500 ------- 0 2.1 3.0 3 12
r 0.531857 2 3 cbr 500 ------- 0 2.1 3.0 2 8
+ 0.535714 0 1 cbr 500 ------- 0 0.0 1.0 3 13
- 0.535714 0 1 cbr 500 ------- 0 0.0 1.0 3 13
+ 0.535714 1 2 cbr 500 ------- 0 1.1 2.0 3 14
- 0.535714 1 2 cbr 500 ------- 0 1.1 2.0 3 14
+ 0.535714 3 0 cbr 500 ------- 0 3.1 0.1 3 15
- 0.535714 3 0 cbr 500 ------- 0 3.1 0.1 3 15
+ 0.535714 2 3 cbr 500 ------- 0 2.1 3.0 4 16
- 0.535714 2 3 cbr 500 ------- 0 2.1 3.0 4 16
r 0.53781 0 1 cbr 500 ------- 0 0.0 1.0 2 9
r 0.53781 1 2 cbr 500 ------- 0 1.1 2.0 2 10
r 0.53781 3 0 cbr 500 ------- 0 3.1 0.1 2 11
r 0.540786 2 3 cbr 500 ------- 0 2.1 3.0 3 12
+ 0.544643 2 3 cbr 500 ------- 0 2.1 3.0 5 17
- 0.544643 2 3 cbr 500 ------- 0 2.1 3.0 5 17
+ 0.547619 0 1 cbr 500 ------- 0 0.0 1.0 4 18
- 0.547619 0 1 cbr 500 ------- 0 0.0 1.0 4 18
+ 0.547619 1 2 cbr 500 ------- 0 1.1 2.0 4 19
- 0.547619 1 2 cbr 500 ------- 0 1.1 2.0 4 19
+ 0.547619 3 0 cbr 500 ------- 0 3.1 0.1 4 20
- 0.547619 3 0 cbr 500 ------- 0 3.1 0.1 4 20
r 0.549714 0 1 cbr 500 ------- 0 0.0 1.0 3 13
r 0.549714 1 2 cbr 500 ------- 0 1.1 2.0 3 14
r 0.549714 3 0 cbr 500 ------- 0 3.1 0.1 3 15
r 0.549714 2 3 cbr 500 ------- 0 2.1 3.0 4 16
+ 0.553571 2 3 cbr 500 ------- 0 2.1 3.0 6 21
- 0.553571 2 3 cbr 500 ------- 0 2.1 3.0 6 21
r 0.558643 2 3 cbr 500 ------- 0 2.1 3.0 5 17
+ 0.559524 0 1 cbr 500 ------- 0 0.0 1.0 5 22
- 0.559524 0 1 cbr 500 ------- 0 0.0 1.0 5 22
+ 0.559524 1 2 cbr 500 ------- 0 1.1 2.0 5 23
- 0.559524 1 2 cbr 500 ------- 0 1.1 2.0 5 23
+ 0.559524 3 0 cbr 500 ------- 0 3.1 0.1 5 24
- 0.559524 3 0 cbr 500 ------- 0 3.1 0.1 5 24
r 0.561619 0 1 cbr 500 ------- 0 0.0 1.0 4 18
r 0.561619 1 2 cbr 500 ------- 0 1.1 2.0 4 19
r 0.561619 3 0 cbr 500 ------- 0 3.1 0.1 4 20
+ 0.5625 2 3 cbr 500 ------- 0 2.1 3.0 7 25
- 0.5625 2 3 cbr 500 ------- 0 2.1 3.0 7 25
r 0.567571 2 3 cbr 500 ------- 0 2.1 3.0 6 21
+ 0.571429 0 1 cbr 500 ------- 0 0.0 1.0 6 26
- 0.571429 0 1 cbr 500 ------- 0 0.0 1.0 6 26
+ 0.571429 1 2 cbr 500 ------- 0 1.1 2.0 6 27
- 0.571429 1 2 cbr 500 ------- 0 1.1 2.0 6 27
+ 0.571429 3 0 cbr 500 ------- 0 3.1 0.1 6 28
- 0.571429 3 0 cbr 500 ------- 0 3.1 0.1 6 28
+ 0.571429 2 3 cbr 500 ------- 0 2.1 3.0 8 29
- 0.571429 2 3 cbr 500 ------- 0 2.1 3.0 8 29
r 0.573524 0 1 cbr 500 ------- 0 0.0 1.0 5 22
r 0.573524 1 2 cbr 500 ------- 0 1.1 2.0 5 23
r 0.573524 3 0 cbr 500 ------- 0 3.1 0.1 5 24
r 0.5765 2 3 cbr 500 ------- 0 2.1 3.0 7 25
+ 0.580357 2 3 cbr 500 ------- 0 2.1 3.0 9 30
- 0.580357 2 3 cbr 500 ------- 0 2.1 3.0 9 30
+ 0.583333 0 1 cbr 500 ------- 0 0.0 1.0 7 31
- 0.583333 0 1 cbr 500 ------- 0 0.0 1.0 7 31
+ 0.583333 1 2 cbr 500 ------- 0 1.1 2.0 7 32
- 0.583333 1 2 cbr 500 ------- 0 1.1 2.0 7 32
+ 0.583333 3 0 cbr 500 ------- 0 3.1 0.1 7 33
- 0.583333 3 0 cbr 500 ------- 0 3.1 0.1 7 33
r 0.585429 0 1 cbr 500 ------- 0 0.0 1.0 6 26
r 0.585429 1 2 cbr 500 ------- 0 1.1 2.0 6 27
r 0.585429 3 0 cbr 500 ------- 0 3.1 0.1 6 28
r 0.585429 2 3 cbr 500 ------- 0 2.1 3.0 8 29
+ 0.589286 2 3 cbr 500 ------- 0 2.1 3.0 10 34
- 0.589286 2 3 cbr 500 ------- 0 2.1 3.0 10 34
r 0.594357 2 3 cbr 500 ------- 0 2.1 3.0 9 30
+ 0.595238 0 1 cbr 500 ------- 0 0.0 1.0 8 35
- 0.595238 0 1 cbr 500 ------- 0 0.0 1.0 8 35
+ 0.595238 1 2 cbr 500 ------- 0 1.1 2.0 8 36
- 0.595238 1 2 cbr 500 ------- 0 1.1 2.0 8 36
+ 0.595238 3 0 cbr 500 ------- 0 3.1 0.1 8 37
- 0.595238 3 0 cbr 500 ------- 0 3.1 0.1 8 37
r 0.597333 0 1 cbr 500 ------- 0 0.0 1.0 7 31
r 0.597333 1 2 cbr 500 ------- 0 1.1 2.0 7 32
r 0.597333 3 0 cbr 500 ------- 0 3.1 0.1 7 33
+ 0.598214 2 3 cbr 500 ------- 0 2.1 3.0 11 38
- 0.598214 2 3 cbr 500 ------- 0 2.1 3.0 11 38
r 0.603286 2 3 cbr 500 ------- 0 2.1 3.0 10 34
+ 0.607143 0 1 cbr 500 ------- 0 0.0 1.0 9 39
- 0.607143 0 1 cbr 500 ------- 0 0.0 1.0 9 39
+ 0.607143 1 2 cbr 500 ------- 0 1.1 2.0 9 40
- 0.607143 1 2 cbr 500 ------- 0 1.1 2.0 9 40
+ 0.607143 3 0 cbr 500 ------- 0 3.1 0.1 9 41
- 0.607143 3 0 cbr 500 ------- 0 3.1 0.1 9 41
+ 0.607143 2 3 cbr 500 ------- 0 2.1 3.0 12 42
- 0.607143 2 3 cbr 500 ------- 0 2.1 3.0 12 42
r 0.609238 0 1 cbr 500 ------- 0 0.0 1.0 8 35
r 0.609238 1 2 cbr 500 ------- 0 1.1 2.0 8 36
r 0.609238 3 0 cbr 500 ------- 0 3.1 0.1 8 37
r 0.612214 2 3 cbr 500 ------- 0 2.1 3.0 11 38
+ 0.616071 2 3 cbr 500 ------- 0 2.1 3.0 13 43
- 0.616071 2 3 cbr 500 ------- 0 2.1 3.0 13 43
+ 0.619048 0 1 cbr 500 ------- 0 0.0 1.0 10 44
- 0.619048 0 1 cbr 500 ------- 0 0.0 1.0 10 44
+ 0.619048 1 2 cbr 500 ------- 0 1.1 2.0 10 45
- 0.619048 1 2 cbr 500 ------- 0 1.1 2.0 10 45
+ 0.619048 3 0 cbr 500 ------- 0 3.1 0.1 10 46
- 0.619048 3 0 cbr 500 ------- 0 3.1 0.1 10 46
r 0.621143 0 1 cbr 500 ------- 0 0.0 1.0 9 39
r 0.621143 1 2 cbr 500 ------- 0 1.1 2.0 9 40
r 0.621143 3 0 cbr 500 ------- 0 3.1 0.1 9 41
r 0.621143 2 3 cbr 500 ------- 0 2.1 3.0 12 42
+ 0.625 2 3 cbr 500 ------- 0 2.1 3.0 14 47
- 0.625 2 3 cbr 500 ------- 0 2.1 3.0 14 47
r 0.630071 2 3 cbr 500 ------- 0 2.1 3.0 13 43
+ 0.630952 0 1 cbr 500 ------- 0 0.0 1.0 11 48
- 0.630952 0 1 cbr 500 ------- 0 0.0 1.0 11 48
+ 0.630952 1 2 cbr 500 ------- 0 1.1 2.0 11 49
- 0.630952 1 2 cbr 500 ------- 0 1.1 2.0 11 49
+ 0.630952 3 0 cbr 500 ------- 0 3.1 0.1 11 50
- 0.630952 3 0 cbr 500 ------- 0 3.1 0.1 11 50
r 0.633048 0 1 cbr 500 ------- 0 0.0 1.0 10 44
r 0.633048 1 2 cbr 500 ------- 0 1.1 2.0 10 45
r 0.633048 3 0 cbr 500 ------- 0 3.1 0.1 10 46
+ 0.633929 2 3 cbr 500 ------- 0 2.1 3.0 15 51
- 0.633929 2 3 cbr 500 ------- 0 2.1 3.0 15 51
r 0.639 2 3 cbr 500 ------- 0 2.1 3.0 14 47
+ 0.642857 0 1 cbr 500 ------- 0 0.0 1.0 12 52
- 0.642857 0 1 cbr 500 ------- 0 0.0 1.0 12 52
+ 0.642857 1 2 cbr 500 ------- 0 1.1 2.0 12 53
- 0.642857 1 2 cbr 500 ------- 0 1.1 2.0 12 53
+ 0.642857 3 0 cbr 500 ------- 0 3.1 0.1 12 54
- 0.642857 3 0 cbr 500 ------- 0 3.1 0.1 12 54
+ 0.642857 2 3 cbr 500 ------- 0 2.1 3.0 16 55
- 0.642857 2 3 cbr 500 ------- 0 2.1 3.0 16 55
r 0.644952 0 1 cbr 500 ------- 0 0.0 1.0 11 48
r 0.644952 1 2 cbr 500 ------- 0 1.1 2.0 11 49
r 0.644952 3 0 cbr 500 ------- 0 3.1 0.1 11 50
r 0.647929 2 3 cbr 500 ------- 0 2.1 3.0 15 51
+ 0.651786 2 3 cbr 500 ------- 0 2.1 3.0 17 56
- 0.651786 2 3 cbr 500 ------- 0 2.1 3.0 17 56
+ 0.654762 0 1 cbr 500 ------- 0 0.0 1.0 13 57
- 0.654762 0 1 cbr 500 ------- 0 0.0 1.0 13 57
+ 0.654762 1 2 cbr 500 ------- 0 1.1 2.0 13 58
- 0.654762 1 2 cbr 500 ------- 0 1.1 2.0 13 58
+ 0.654762 3 0 cbr 500 ------- 0 3.1 0.1 13 59
- 0.654762 3 0 cbr 500 ------- 0 3.1 0.1 13 59
r 0.656857 0 1 cbr 500 ------- 0 0.0 1.0 12 52
r 0.656857 1 2 cbr 500 ------- 0 1.1 2.0 12 53
r 0.656857 3 0 cbr 500 ------- 0 3.1 0.1 12 54
r 0.656857 2 3 cbr 500 ------- 0 2.1 3.0 16 55
+ 0.660714 2 3 cbr 500 ------- 0 2.1 3.0 18 60
- 0.660714 2 3 cbr 500 ------- 0 2.1 3.0 18 60
r 0.665786 2 3 cbr 500 ------- 0 2.1 3.0 17 56
+ 0.666667 0 1 cbr 500 ------- 0 0.0 1.0 14 61
- 0.666667 0 1 cbr 500 ------- 0 0.0 1.0 14 61
+ 0.666667 1 2 cbr 500 ------- 0 1.1 2.0 14 62
- 0.666667 1 2 cbr 500 ------- 0 1.1 2.0 14 62
+ 0.666667 3 0 cbr 500 ------- 0 3.1 0.1 14 63
- 0.666667 3 0 cbr 500 ------- 0 3.1 0.1 14 63
r 0.668762 0 1 cbr 500 ------- 0 0.0 1.0 13 57
r 0.668762 1 2 cbr 500 ------- 0 1.1 2.0 13 58
r 0.668762 3 0 cbr 500 ------- 0 3.1 0.1 13 59
+ 0.669643 2 3 cbr 500 ------- 0 2.1 3.0 19 64
- 0.669643 2 3 cbr 500 ------- 0 2.1 3.0 19 64
r 0.674714 2 3 cbr 500 ------- 0 2.1 3.0 18 60
+ 0.678571 0 1 cbr 500 ------- 0 0.0 1.0 15 65
- 0.678571 0 1 cbr 500 ------- 0 0.0 1.0 15 65
+ 0.678571 1 2 cbr 500 ------- 0 1.1 2.0 15 66
- 0.678571 1 2 cbr 500 ------- 0 1.1 2.0 15 66
+ 0.678571 3 0 cbr 500 ------- 0 3.1 0.1 15 67
- 0.678571 3 0 cbr 500 ------- 0 3.1 0.1 15 67
+ 0.678571 2 3 cbr 500 ------- 0 2.1 3.0 20 68
- 0.678571 2 3 cbr 500 ------- 0 2.1 3.0 20 68
r 0.680667 0 1 cbr 500 ------- 0 0.0 1.0 14 61
r 0.680667 1 2 cbr 500 ------- 0 1.1 2.0 14 62
r 0.680667 3 0 cbr 500 ------- 0 3.1 0.1 14 63
r 0.683643 2 3 cbr 500 ------- 0 2.1 3.0 19 64
+ 0.6875 2 3 cbr 500 ------- 0 2.1 3.0 21 69
- 0.6875 2 3 cbr 500 ------- 0 2.1 3.0 21 69
+ 0.690476 0 1 cbr 500 ------- 0 0.0 1.0 16 70
- 0.690476 0 1 cbr 500 ------- 0 0.0 1.0 16 70
+ 0.690476 1 2 cbr 500 ------- 0 1.1 2.0 16 71
- 0.690476 1 2 cbr 500 ------- 0 1.1 2.0 16 71
+ 0.690476 3 0 cbr 500 ------- 0 3.1 0.1 16 72
- 0.690476 3 0 cbr 500 ------- 0 3.1 0.1 16 72
r 0.692571 0 1 cbr 500 ------- 0 0.0 1.0 15 65
r 0.692571 1 2 cbr 500 ------- 0 1.1 2.0 15 66
r 0.692571 3 0 cbr 500 ------- 0 3.1 0.1 15 67
r 0.692571 2 3 cbr 500 ------- 0 2.1 3.0 20 68
+ 0.696429 2 3 cbr 500 ------- 0 2.1 3.0 22 73
- 0.696429 2 3 cbr 500 ------- 0 2.1 3.0 22 73
r 0.7015 2 3 cbr 500 ------- 0 2.1 3.0 21 69
+ 0.702381 0 1 cbr 500 ------- 0 0.0 1.0 17 74
- 0.702381 0 1 cbr 500 ------- 0 0.0 1.0 17 74
+ 0.702381 1 2 cbr 500 ------- 0 1.1 2.0 17 75
- 0.702381 1 2 cbr 500 ------- 0 1.1 2.0 17 75
+ 0.702381 3 0 cbr 500 ------- 0 3.1 0.1 17 76
- 0.702381 3 0 cbr 500 ------- 0 3.1 0.1 17 76
r 0.704476 0 1 cbr 500 ------- 0 0.0 1.0 16 70
r 0.704476 1 2 cbr 500 ------- 0 1.1 2.0 16 71
r 0.704476 3 0 cbr 500 ------- 0 3.1 0.1 16 72
+ 0.705357 2 3 cbr 500 ------- 0 2.1 3.0 23 77
- 0.705357 2 3 cbr 500 ------- 0 2.1 3.0 23 77
r 0.710429 2 3 cbr 500 ------- 0 2.1 3.0 22 73
+ 0.714286 0 1 cbr 500 ------- 0 0.0 1.0 18 78
- 0.714286 0 1 cbr 500 ------- 0 0.0 1.0 18 78
+ 0.714286 1 2 cbr 500 ------- 0 1.1 2.0 18 79
- 0.714286 1 2 cbr 500 ------- 0 1.1 2.0 18 79
+ 0.714286 3 0 cbr 500 ------- 0 3.1 0.1 18 80
- 0.714286 3 0 cbr 500 ------- 0 3.1 0.1 18 80
+ 0.714286 2 3 cbr 500 ------- 0 2.1 3.0 24 81
- 0.714286 2 3 cbr 500 ------- 0 2.1 3.0 24 81
r 0.716381 0 1 cbr 500 ------- 0 0.0 1.0 17 74
r 0.716381 1 2 cbr 500 ------- 0 1.1 2.0 17 75
r 0.716381 3 0 cbr 500 ------- 0 3.1 0.1 17 76
r 0.719357 2 3 cbr 500 ------- 0 2.1 3.0 23 77
+ 0.723214 2 3 cbr 500 ------- 0 2.1 3.0 25 82
- 0.723214 2 3 cbr 500 ------- 0 2.1 3.0 25 82
+ 0.72619 0 1 cbr 500 ------- 0 0.0 1.0 19 83
- 0.72619 0 1 cbr 500 ------- 0 0.0 1.0 19 83
+ 0.72619 1 2 cbr 500 ------- 0 1.1 2.0 19 84
- 0.72619 1 2 cbr 500 ------- 0 1.1 2.0 19 84
+ 0.72619 3 0 cbr 500 ------- 0 3.1 0.1 19 85
- 0.72619 3 0 cbr 500 ------- 0 3.1 0.1 19 85
r 0.728286 0 1 cbr 500 ------- 0 0.0 1.0 18 78
r 0.728286 1 2 cbr 500 ------- 0 1.1 2.0 18 79
r 0.728286 3 0 cbr 500 ------- 0 3.1 0.1 18 80
r 0.728286 2 3 cbr 500 ------- 0 2.1 3.0 24 81
+ 0.732143 2 3 cbr 500 ------- 0 2.1 3.0 26 86
- 0.732143 2 3 cbr 500 ------- 0 2.1 3.0 26 86
r 0.737214 2 3 cbr 500 ------- 0 2.1 3.0 25 82
+ 0.738095 0 1 cbr 500 ------- 0 0.0 1.0 20 87
- 0.738095 0 1 cbr 500 ------- 0 0.0 1.0 20 87
+ 0.738095 1 2 cbr 500 ------- 0 1.1 2.0 20 88
- 0.738095 1 2 cbr 500 ------- 0 1.1 2.0 20 88
+ 0.738095 3 0 cbr 500 ------- 0 3.1 0.1 20 89
- 0.738095 3 0 cbr 500 ------- 0 3.1 0.1 20 89
r 0.74019 0 1 cbr 500 ------- 0 0.0 1.0 19 83
r 0.74019 1 2 cbr 500 ------- 0 1.1 2.0 19 84
r 0.74019 3 0 cbr 500 ------- 0 3.1 0.1 19 85
+ 0.741071 2 3 cbr 500 ------- 0 2.1 3.0 27 90
- 0.741071 2 3 cbr 500 ------- 0 2.1 3.0 27 90
r 0.746143 2 3 cbr 500 ------- 0 2.1 3.0 26 86
+ 0.75 0 1 cbr 500 ------- 0 0.0 1.0 21 91
- 0.75 0 1 cbr 500 ------- 0 0.0 1.0 21 91
+ 0.75 1 2 cbr 500 ------- 0 1.1 2.0 21 92
- 0.75 1 2 cbr 500 ------- 0 1.1 2.0 21 92
+ 0.75 3 0 cbr 500 ------- 0 3.1 0.1 21 93
- 0.75 3 0 cbr 500 ------- 0 3.1 0.1 21 93
+ 0.75 2 3 cbr 500 ------- 0 2.1 3.0 28 94
- 0.75 2 3 cbr 500 ------- 0 2.1 3.0 28 94
r 0.752095 0 1 cbr 500 ------- 0 0.0 1.0 20 87
r 0.752095 1 2 cbr 500 ------- 0 1.1 2.0 20 88
r 0.752095 3 0 cbr 500 ------- 0 3.1 0.1 20 89
r 0.755071 2 3 cbr 500 ------- 0 2.1 3.0 27 90
+ 0.758929 2 3 cbr 500 ------- 0 2.1 3.0 29 95
- 0.758929 2 3 cbr 500 ------- 0 2.1 3.0 29 95
+ 0.761905 0 1 cbr 500 ------- 0 0.0 1.0 22 96
- 0.761905 0 1 cbr 500 ------- 0 0.0 1.0 22 96
+ 0.761905 1 2 cbr 500 ------- 0 1.1 2.0 22 97
- 0.761905 1 2 cbr 500 ------- 0 1.1 2.0 22 97
+ 0.761905 3 0 cbr 500 ------- 0 3.1 0.1 22 98
- 0.761905 3 0 cbr 500 ------- 0 3.1 0.1 22 98
r 0.764 0 1 cbr 500 ------- 0 0.0 1.0 21 91
r 0.764 1 2 cbr 500 ------- 0 1.1 2.0 21 92
r 0.764 3 0 cbr 500 ------- 0 3.1 0.1 21 93
r 0.764 2 3 cbr 500 ------- 0 2.1 3.0 28 94
+ 0.767857 2 3 cbr 500 ------- 0 2.1 3.0 30 99
- 0.767857 2 3 cbr 500 ------- 0 2.1 3.0 30 99
r 0.772929 2 3 cbr 500 ------- 0 2.1 3.0 29 95
+ 0.77381 0 1 cbr 500 ------- 0 0.0 1.0 23 100
- 0.77381 0 1 cbr 500 ------- 0 0.0 1.0 23 100
+ 0.77381 1 2 cbr 500 ------- 0 1.1 2.0 23 101
- 0.77381 1 2 cbr 500 ------- 0 1.1 2.0 23 101
+ 0.77381 3 0 cbr 500 ------- 0 3.1 0.1 23 102
- 0.77381 3 0 cbr 500 ------- 0 3.1 0.1 23 102
r 0.775905 0 1 cbr 500 ------- 0 0.0 1.0 22 96
r 0.775905 1 2 cbr 500 ------- 0 1.1 2.0 22 97
r 0.775905 3 0 cbr 500 ------- 0 3.1 0.1 22 98
+ 0.776786 2 3 cbr 500 ------- 0 2.1 3.0 31 103
- 0.776786 2 3 cbr 500 ------- 0 2.1 3.0 31 103
r 0.781857 2 3 cbr 500 ------- 0 2.1 3.0 30 99
+ 0.785714 0 1 cbr 500 ------- 0 0.0 1.0 24 104
- 0.785714 0 1 cbr 500 ------- 0 0.0 1.0 24 104
+ 0.785714 1 2 cbr 500 ------- 0 1.1 2.0 24 105
- 0.785714 1 2 cbr 500 ------- 0 1.1 2.0 24 105
+ 0.785714 3 0 cbr 500 ------- 0 3.1 0.1 24 106
- 0.785714 3 0 cbr 500 ------- 0 3.1 0.1 24 106
+ 0.785714 2 3 cbr 500 ------- 0 2.1 3.0 32 107
- 0.785714 2 3 cbr 500 ------- 0 2.1 3.0 32 107
r 0.78781 0 1 cbr 500 ------- 0 0.0 1.0 23 100
r 0.78781 1 2 cbr 500 ------- 0 1.1 2.0 23 101
r 0.78781 3 0 cbr 500 ------- 0 3.1 0.1 23 102
r 0.790786 2 3 cbr 500 ------- 0 2.1 3.0 31 103
+ 0.794643 2 3 cbr 500 ------- 0 2.1 3.0 33 108
- 0.794643 2 3 cbr 500 ------- 0 2.1 3.0 33 108
+ 0.797619 0 1 cbr 500 ------- 0 0.0 1.0 25 109
- 0.797619 0 1 cbr 500 ------- 0 0.0 1.0 25 109
+ 0.797619 1 2 cbr 500 ------- 0 1.1 2.0 25 110
- 0.797619 1 2 cbr 500 ------- 0 1.1 2.0 25 110
+ 0.797619 3 0 cbr 500 ------- 0 3.1 0.1 25 111
- 0.797619 3 0 cbr 500 ------- 0 3.1 0.1 25 111
r 0.799714 0 1 cbr 500 ------- 0 0.0 1.0 24 104
r 0.799714 1 2 cbr 500 ------- 0 1.1 2.0 24 105
r 0.799714 3 0 cbr 500 ------- 0 3.1 0.1 24 106
r 0.799714 2 3 cbr 500 ------- 0 2.1 3.0 32 107
+ 0.803571 2 3 cbr 500 ------- 0 2.1 3.0 34 112
- 0.803571 2 3 cbr 500 ------- 0 2.1 3.0 34 112
r 0.808643 2 3 cbr 500 ------- 0 2.1 3.0 33 108
+ 0.809524 0 1 cbr 500 ------- 0 0.0 1.0 26 113
- 0.809524 0 1 cbr 500 ------- 0 0.0 1.0 26 113
+ 0.809524 1 2 cbr 500 ------- 0 1.1 2.0 26 114
- 0.809524 1 2 cbr 500 ------- 0 1.1 2.0 26 114
+ 0.809524 3 0 cbr 500 ------- 0 3.1 0.1 26 115
- 0.809524 3 0 cbr 500 ------- 0 3.1 0.1 26 115
r 0.811619 0 1 cbr 500 ------- 0 0.0 1.0 25 109
r 0.811619 1 2 cbr 500 ------- 0 1.1 2.0 25 110
r 0.811619 3 0 cbr 500 ------- 0 3.1 0.1 25 111
+ 0.8125 2 3 cbr 500 ------- 0 2.1 3.0 35 116
- 0.8125 2 3 cbr 500 ------- 0 2.1 3.0 35 116
r 0.817571 2 3 cbr 500 ------- 0 2.1 3.0 34 112
+ 0.821429 0 1 cbr 500 ------- 0 0.0 1.0 27 117
- 0.821429 0 1 cbr 500 ------- 0 0.0 1.0 27 117
+ 0.821429 1 2 cbr 500 ------- 0 1.1 2.0 27 118
- 0.821429 1 2 cbr 500 ------- 0 1.1 2.0 27 118
+ 0.821429 3 0 cbr 500 ------- 0 3.1 0.1 27 119
- 0.821429 3 0 cbr 500 ------- 0 3.1 0.1 27 119
+ 0.821429 2 3 cbr 500 ------- 0 2.1 3.0 36 120
- 0.821429 2 3 cbr 500 ------- 0 2.1 3.0 36 120
r 0.823524 0 1 cbr 500 ------- 0 0.0 1.0 26 113
r 0.823524 1 2 cbr 500 ------- 0 1.1 2.0 26 114
r 0.823524 3 0 cbr 500 ------- 0 3.1 0.1 26 115
r 0.8265 2 3 cbr 500 ------- 0 2.1 3.0 35 116
+ 0.830357 2 3 cbr 500 ------- 0 2.1 3.0 37 121
- 0.830357 2 3 cbr 500 ------- 0 2.1 3.0 37 121
+ 0.833333 0 1 cbr 500 ------- 0 0.0 1.0 28 122
- 0.833333 0 1 cbr 500 ------- 0 0.0 1.0 28 122
+ 0.833333 1 2 cbr 500 ------- 0 1.1 2.0 28 123
- 0.833333 1 2 cbr 500 ------- 0 1.1 2.0 28 123
+ 0.833333 3 0 cbr 500 ------- 0 3.1 0.1 28 124
- 0.833333 3 0 cbr 500 ------- 0 3.1 0.1 28 124
r 0.835429 0 1 cbr 500 ------- 0 0.0 1.0 27 117
r 0.835429 1 2 cbr 500 ------- 0 1.1 2.0 27 118
r 0.835429 3 0 cbr 500 ------- 0 3.1 0.1 27 119
r 0.835429 2 3 cbr 500 ------- 0 2.1 3.0 36 120
+ 0.839286 2 3 cbr 500 ------- 0 2.1 3.0 38 125
- 0.839286 2 3 cbr 500 ------- 0 2.1 3.0 38 125
r 0.844357 2 3 cbr 500 ------- 0 2.1 3.0 37 121
+ 0.845238 0 1 cbr 500 ------- 0 0.0 1.0 29 126
- 0.845238 0 1 cbr 500 ------- 0 0.0 1.0 29 126
+ 0.845238 1 2 cbr 500 ------- 0 1.1 2.0 29 127
- 0.845238 1 2 cbr 500 ------- 0 1.1 2.0 29 127
+ 0.845238 3 0 cbr 500 ------- 0 3.1 0.1 29 128
- 0.845238 3 0 cbr 500 ------- 0 3.1 0.1 29 128
r 0.847333 0 1 cbr 500 ------- 0 0.0 1.0 28 122
r 0.847333 1 2 cbr 500 ------- 0 1.1 2.0 28 123
r 0.847333 3 0 cbr 500 ------- 0 3.1 0.1 28 124
+ 0.848214 2 3 cbr 500 ------- 0 2.1 3.0 39 129
- 0.848214 2 3 cbr 500 ------- 0 2.1 3.0 39 129
r 0.853286 2 3 cbr 500 ------- 0 2.1 3.0 38 125
+ 0.857143 0 1 cbr 500 ------- 0 0.0 1.0 30 130
- 0.857143 0 1 cbr 500 ------- 0 0.0 1.0 30 130
+ 0.857143 1 2 cbr 500 ------- 0 1.1 2.0 30 131
- 0.857143 1 2 cbr 500 ------- 0 1.1 2.0 30 131
+ 0.857143 3 0 cbr 500 ------- 0 3.1 0.1 30 132
- 0.857143 3 0 cbr 500 ------- 0 3.1 0.1 30 132
+ 0.857143 2 3 cbr 500 ------- 0 2.1 3.0 40 133
- 0.857143 2 3 cbr 500 ------- 0 2.1 3.0 40 133
r 0.859238 0 1 cbr 500 ------- 0 0.0 1.0 29 126
r 0.859238 1 2 cbr 500 ------- 0 1.1 2.0 29 127
r 0.859238 3 0 cbr 500 ------- 0 3.1 0.1 29 128
r 0.862214 2 3 cbr 500 ------- 0 2.1 3.0 39 129
+ 0.866071 2 3 cbr 500 ------- 0 2.1 3.0 41 134
- 0.866071 2 3 cbr 500 ------- 0 2.1 3.0 41 134
+ 0.869048 0 1 cbr 500 ------- 0 0.0 1.0 31 135
- 0.869048 0 1 cbr 500 ------- 0 0.0 1.0 31 135
+ 0.869048 1 2 cbr 500 ------- 0 1.1 2.0 31 136
- 0.869048 1 2 cbr 500 ------- 0 1.1 2.0 31 136
+ 0.869048 3 0 cbr 500 ------- 0 3.1 0.1 31 137
- 0.869048 3 0 cbr 500 ------- 0 3.1 0.1 31 137
r 0.871143 0 1 cbr 500 ------- 0 0.0 1.0 30 130
r 0.871143 1 2 cbr 500 ------- 0 1.1 2.0 30 131
r 0.871143 3 0 cbr 500 ------- 0 3.1 0.1 30 132
r 0.871143 2 3 cbr 500 ------- 0 2.1 3.0 40 133
+ 0.875 2 3 cbr 500 ------- 0 2.1 3.0 42 138
- 0.875 2 3 cbr 500 ------- 0 2.1 3.0 42 138
r 0.880071 2 3 cbr 500 ------- 0 2.1 3.0 41 134
+ 0.880952 0 1 cbr 500 ------- 0 0.0 1.0 32 139
- 0.880952 0 1 cbr 500 ------- 0 0.0 1.0 32 139
+ 0.880952 1 2 cbr 500 ------- 0 1.1 2.0 32 140
- 0.880952 1 2 cbr 500 ------- 0 1.1 2.0 32 140
+ 0.880952 3 0 cbr 500 ------- 0 3.1 0.1 32 141
- 0.880952 3 0 cbr 500 ------- 0 3.1 0.1 32 141
r 0.883048 0 1 cbr 500 ------- 0 0.0 1.0 31 135
r 0.883048 1 2 cbr 500 ------- 0 1.1 2.0 31 136
r 0.883048 3 0 cbr 500 ------- 0 3.1 0.1 31 137
+ 0.883929 2 3 cbr 500 ------- 0 2.1 3.0 43 142
- 0.883929 2 3 cbr 500 ------- 0 2.1 3.0 43 142
r 0.889 2 3 cbr 500 ------- 0 2.1 3.0 42 138
+ 0.892857 0 1 cbr 500 ------- 0 0.0 1.0 33 143
- 0.892857 0 1 cbr 500 ------- 0 0.0 1.0 33 143
+ 0.892857 1 2 cbr 500 ------- 0 1.1 2.0 33 144
- 0.892857 1 2 cbr 500 ------- 0 1.1 2.0 33 144
+ 0.892857 3 0 cbr 500 ------- 0 3.1 0.1 33 145
- 0.892857 3 0 cbr 500 ------- 0 3.1 0.1 33 145
+ 0.892857 2 3 cbr 500 ------- 0 2.1 3.0 44 146
- 0.892857 2 3 cbr 500 ------- 0 2.1 3.0 44 146
r 0.894952 0 1 cbr 500 ------- 0 0.0 1.0 32 139
r 0.894952 1 2 cbr 500 ------- 0 1.1 2.0 32 140
r 0.894952 3 0 cbr 500 ------- 0 3.1 0.1 32 141
r 0.897929 2 3 cbr 500 ------- 0 2.1 3.0 43 142
+ 0.901786 2 3 cbr 500 ------- 0 2.1 3.0 45 147
- 0.901786 2 3 cbr 500 ------- 0 2.1 3.0 45 147
+ 0.904762 0 1 cbr 500 ------- 0 0.0 1.0 34 148
- 0.904762 0 1 cbr 500 ------- 0 0.0 1.0 34 148
+ 0.904762 1 2 cbr 500 ------- 0 1.1 2.0 34 149
- 0.904762 1 2 cbr 500 ------- 0 1.1 2.0 34 149
+ 0.904762 3 0 cbr 500 ------- 0 3.1 0.1 34 150
- 0.904762 3 0 cbr 500 ------- 0 3.1 0.1 34 150
r 0.906857 0 1 cbr 500 ------- 0 0.0 1.0 33 143
r 0.906857 1 2 cbr 500 ------- 0 1.1 2.0 33 144
r 0.906857 3 0 cbr 500 ------- 0 3.1 0.1 33 145
r 0.906857 2 3 cbr 500 ------- 0 2.1 3.0 44 146
+ 0.910714 2 3 cbr 500 ------- 0 2.1 3.0 46 151
- 0.910714 2 3 cbr 500 ------- 0 2.1 3.0 46 151
r 0.915786 2 3 cbr 500 ------- 0 2.1 3.0 45 147
+ 0.916667 0 1 cbr 500 ------- 0 0.0 1.0 35 152
- 0.916667 0 1 cbr 500 ------- 0 0.0 1.0 35 152
+ 0.916667 1 2 cbr 500 ------- 0 1.1 2.0 35 153
- 0.916667 1 2 cbr 500 ------- 0 1.1 2.0 35 153
+ 0.916667 3 0 cbr 500 ------- 0 3.1 0.1 35 154
- 0.916667 3 0 cbr 500 ------- 0 3.1 0.1 35 154
r 0.918762 0 1 cbr 500 ------- 0 0.0 1.0 34 148
r 0.918762 1 2 cbr 500 ------- 0 1.1 2.0 34 149
r 0.918762 3 0 cbr 500 ------- 0 3.1 0.1 34 150
+ 0.919643 2 3 cbr 500 ------- 0 2.1 3.0 47 155
- 0.919643 2 3 cbr 500 ------- 0 2.1 3.0 47 155
r 0.924714 2 3 cbr 500 ------- 0 2.1 3.0 46 151
+ 0.928571 0 1 cbr 500 ------- 0 0.0 1.0 36 156
- 0.928571 0 1 cbr 500 ------- 0 0.0 1.0 36 156
+ 0.928571 1 2 cbr 500 ------- 0 1.1 2.0 36 157
- 0.928571 1 2 cbr 500 ------- 0 1.1 2.0 36 157
+ 0.928571 3 0 cbr 500 ------- 0 3.1 0.1 36 158
- 0.928571 3 0 cbr 500 ------- 0 3.1 0.1 36 158
+ 0.928571 2 3 cbr 500 ------- 0 2.1 3.0 48 159
- 0.928571 2 3 cbr 500 ------- 0 2.1 3.0 48 159
r 0.930667 0 1 cbr 500 ------- 0 0.0 1.0 35 152
r 0.930667 1 2 cbr 500 ------- 0 1.1 2.0 35 153
r 0.930667 3 0 cbr 500 ------- 0 3.1 0.1 35 154
r 0.933643 2 3 cbr 500 ------- 0 2.1 3.0 47 155
+ 0.9375 2 3 cbr 500 ------- 0 2.1 3.0 49 160
- 0.9375 2 3 cbr 500 ------- 0 2.1 3.0 49 160
+ 0.940476 0 1 cbr 500 ------- 0 0.0 1.0 37 161
- 0.940476 0 1 cbr 500 ------- 0 0.0 1.0 37 161
+ 0.940476 1 2 cbr 500 ------- 0 1.1 2.0 37 162
- 0.940476 1 2 cbr 500 ------- 0 1.1 2.0 37 162
+ 0.940476 3 0 cbr 500 ------- 0 3.1 0.1 37 163
- 0.940476 3 0 cbr 500 ------- 0 3.1 0.1 37 163
r 0.942571 0 1 cbr 500 ------- 0 0.0 1.0 36 156
r 0.942571 1 2 cbr 500 ------- 0 1.1 2.0 36 157
r 0.942571 3 0 cbr 500 ------- 0 3.1 0.1 36 158
r 0.942571 2 3 cbr 500 ------- 0 2.1 3.0 48 159
+ 0.946429 2 3 cbr 500 ------- 0 2.1 3.0 50 164
- 0.946429 2 3 cbr 500 ------- 0 2.1 3.0 50 164
r 0.9515 2 3 cbr 500 ------- 0 2.1 3.0 49 160
+ 0.952381 0 1 cbr 500 ------- 0 0.0 1.0 38 165
- 0.952381 0 1 cbr 500 ------- 0 0.0 1.0 38 165
+ 0.952381 1 2 cbr 500 ------- 0 1.1 2.0 38 166
- 0.952381 1 2 cbr 500 ------- 0 1.1 2.0 38 166
+ 0.952381 3 0 cbr 500 ------- 0 3.1 0.1 38 167
- 0.952381 3 0 cbr 500 ------- 0 3.1 0.1 38 167
r 0.954476 0 1 cbr 500 ------- 0 0.0 1.0 37 161
r 0.954476 1 2 cbr 500 ------- 0 1.1 2.0 37 162
r 0.954476 3 0 cbr 500 ------- 0 3.1 0.1 37 163
+ 0.955357 2 3 cbr 500 ------- 0 2.1 3.0 51 168
- 0.955357 2 3 cbr 500 ------- 0 2.1 3.0 51 168
r 0.960429 2 3 cbr 500 ------- 0 2.1 3.0 50 164
+ 0.964286 0 1 cbr 500 ------- 0 0.0 1.0 39 169
- 0.964286 0 1 cbr 500 ------- 0 0.0 1.0 39 169
+ 0.964286 1 2 cbr 500 ------- 0 1.1 2.0 39 170
- 0.964286 1 2 cbr 500 ------- 0 1.1 2.0 39 170
+ 0.964286 3 0 cbr 500 ------- 0 3.1 0.1 39 171
- 0.964286 3 0 cbr 500 ------- 0 3.1 0.1 39 171
+ 0.964286 2 3 cbr 500 ------- 0 2.1 3.0 52 172
- 0.964286 2 3 cbr 500 ------- 0 2.1 3.0 52 172
r 0.966381 0 1 cbr 500 ------- 0 0.0 1.0 38 165
r 0.966381 1 2 cbr 500 ------- 0 1.1 2.0 38 166
r 0.966381 3 0 cbr 500 ------- 0 3.1 0.1 38 167
r 0.969357 2 3 cbr 500 ------- 0 2.1 3.0 51 168
+ 0.973214 2 3 cbr 500 ------- 0 2.1 3.0 53 173
- 0.973214 2 3 cbr 500 ------- 0 2.1 3.0 53 173
+ 0.97619 0 1 cbr 500 ------- 0 0.0 1.0 40 174
- 0.97619 0 1 cbr 500 ------- 0 0.0 1.0 40 174
+ 0.97619 1 2 cbr 500 ------- 0 1.1 2.0 40 175
- 0.97619 1 2 cbr 500 ------- 0 1.1 2.0 40 175
+ 0.97619 3 0 cbr 500 ------- 0 3.1 0.1 40 176
- 0.97619 3 0 cbr 500 ------- 0 3.1 0.1 40 176
r 0.978286 0 1 cbr 500 ------- 0 0.0 1.0 39 169
r 0.978286 1 2 cbr 500 ------- 0 1.1 2.0 39 170
r 0.978286 3 0 cbr 500 ------- 0 3.1 0.1 39 171
r 0.978286 2 3 cbr 500 ------- 0 2.1 3.0 52 172
+ 0.982143 2 3 cbr 500 ------- 0 2.1 3.0 54 177
- 0.982143 2 3 cbr 500 ------- 0 2.1 3.0 54 177
r 0.987214 2 3 cbr 500 ------- 0 2.1 3.0 53 173
+ 0.988095 0 1 cbr 500 ------- 0 0.0 1.0 41 178
- 0.988095 0 1 cbr 500 ------- 0 0.0 1.0 41 178
+ 0.988095 1 2 cbr 500 ------- 0 1.1 2.0 41 179
- 0.988095 1 2 cbr 500 ------- 0 1.1 2.0 41 179
+ 0.988095 3 0 cbr 500 ------- 0 3.1 0.1 41 180
- 0.988095 3 0 cbr 500 ------- 0 3.1 0.1 41 180
r 0.99019 0 1 cbr 500 ------- 0 0.0 1.0 40 174
r 0.99019 1 2 cbr 500 ------- 0 1.1 2.0 40 175
r 0.99019 3 0 cbr 500 ------- 0 3.1 0.1 40 176
+ 0.991071 2 3 cbr 500 ------- 0 2.1 3.0 55 181
- 0.991071 2 3 cbr 500 ------- 0 2.1 3.0 55 181
r 0.996143 2 3 cbr 500 ------- 0 2.1 3.0 54 177
+ 1 0 1 cbr 500 ------- 0 0.0 1.0 42 182
- 1 0 1 cbr 500 ------- 0 0.0 1.0 42 182
+ 1 1 2 cbr 500 ------- 0 1.1 2.0 42 183
- 1 1 2 cbr 500 ------- 0 1.1 2.0 42 183
+ 1 3 0 cbr 500 ------- 0 3.1 0.1 42 184
- 1 3 0 cbr 500 ------- 0 3.1 0.1 42 184
+ 1 2 3 cbr 500 ------- 0 2.1 3.0 56 185
- 1 2 3 cbr 500 ------- 0 2.1 3.0 56 185
r 1.002095 0 1 cbr 500 ------- 0 0.0 1.0 41 178
r 1.002095 1 2 cbr 500 ------- 0 1.1 2.0 41 179
r 1.002095 3 0 cbr 500 ------- 0 3.1 0.1 41 180
r 1.005071 2 3 cbr 500 ------- 0 2.1 3.0 55 181
+ 1.008929 2 3 cbr 500 ------- 0 2.1 3.0 57 186
- 1.008929 2 3 cbr 500 ------- 0 2.1 3.0 57 186
+ 1.011905 0 1 cbr 500 ------- 0 0.0 1.0 43 187
- 1.011905 0 1 cbr 500 ------- 0 0.0 1.0 43 187
+ 1.011905 1 2 cbr 500 ------- 0 1.1 2.0 43 188
- 1.011905 1 2 cbr 500 ------- 0 1.1 2.0 43 188
+ 1.011905 3 0 cbr 500 ------- 0 3.1 0.1 43 189
- 1.011905 3 0 cbr 500 ------- 0 3.1 0.1 43 189
r 1.014 0 1 cbr 500 ------- 0 0.0 1.0 42 182
r 1.014 1 2 cbr 500 ------- 0 1.1 2.0 42 183
r 1.014 3 0 cbr 500 ------- 0 3.1 0.1 42 184
r 1.014 2 3 cbr 500 ------- 0 2.1 3.0 56 185
+ 1.017857 2 3 cbr 500 ------- 0 2.1 3.0 58 190
- 1.017857 2 3 cbr 500 ------- 0 2.1 3.0 58 190
r 1.022929 2 3 cbr 500 ------- 0 2.1 3.0 57 186
+ 1.02381 0 1 cbr 500 ------- 0 0.0 1.0 44 191
- 1.02381 0 1 cbr 500 ------- 0 0.0 1.0 44 191
+ 1.02381 1 2 cbr 500 ------- 0 1.1 2.0 44 192
- 1.02381 1 2 cbr 500 ------- 0 1.1 2.0 44 192
+ 1.02381 3 0 cbr 500 ------- 0 3.1 0.1 44 193
- 1.02381 3 0 cbr 500 ------- 0 3.1 0.1 44 193
r 1.025905 0 1 cbr 500 ------- 0 0.0 1.0 43 187
r 1.025905 1 2 cbr 500 ------- 0 1.1 2.0 43 188
r 1.025905 3 0 cbr 500 ------- 0 3.1 0.1 43 189
+ 1.026786 2 3 cbr 500 ------- 0 2.1 3.0 59 194
- 1.026786 2 3 cbr 500 ------- 0 2.1 3.0 59 194
r 1.031857 2 3 cbr 500 ------- 0 2.1 3.0 58 190
+ 1.035714 0 1 cbr 500 ------- 0 0.0 1.0 45 195
- 1.035714 0 1 cbr 500 ------- 0 0.0 1.0 45 195
+ 1.035714 1 2 cbr 500 ------- 0 1.1 2.0 45 196
- 1.035714 1 2 cbr 500 ------- 0 1.1 2.0 45 196
+ 1.035714 3 0 cbr 500 ------- 0 3.1 0.1 45 197
- 1.035714 3 0 cbr 500 ------- 0 3.1 0.1 45 197
+ 1.035714 2 3 cbr 500 ------- 0 2.1 3.0 60 198
- 1.035714 2 3 cbr 500 ------- 0 2.1 3.0 60 198
r 1.03781 0 1 cbr 500 ------- 0 0.0 1.0 44 191
r 1.03781 1 2 cbr 500 ------- 0 1.1 2.0 44 192
r 1.03781 3 0 cbr 500 ------- 0 3.1 0.1 44 193
r 1.040786 2 3 cbr 500 ------- 0 2.1 3.0 59 194
+ 1.044643 2 3 cbr 500 ------- 0 2.1 3.0 61 199
- 1.044643 2 3 cbr 500 ------- 0 2.1 3.0 61 199
+ 1.047619 0 1 cbr 500 ------- 0 0.0 1.0 46 200
- 1.047619 0 1 cbr 500 ------- 0 0.0 1.0 46 200
+ 1.047619 1 2 cbr 500 ------- 0 1.1 2.0 46 201
- 1.047619 1 2 cbr 500 ------- 0 1.1 2.0 46 201
+ 1.047619 3 0 cbr 500 ------- 0 3.1 0.1 46 202
- 1.047619 3 0 cbr 500 ------- 0 3.1 0.1 46 202
r 1.049714 0 1 cbr 500 ------- 0 0.0 1.0 45 195
r 1.049714 1 2 cbr 500 ------- 0 1.1 2.0 45 196
r 1.049714 3 0 cbr 500 ------- 0 3.1 0.1 45 197
r 1.049714 2 3 cbr 500 ------- 0 2.1 3.0 60 198
+ 1.053571 2 3 cbr 500 ------- 0 2.1 3.0 62 203
- 1.053571 2 3 cbr 500 ------- 0 2.1 3.0 62 203
r 1.058643 2 3 cbr 500 ------- 0 2.1 3.0 61 199
+ 1.059524 0 1 cbr 500 ------- 0 0.0 1.0 47 204
- 1.059524 0 1 cbr 500 ------- 0 0.0 1.0 47 204
+ 1.059524 1 2 cbr 500 ------- 0 1.1 2.0 47 205
- 1.059524 1 2 cbr 500 ------- 0 1.1 2.0 47 205
+ 1.059524 3 0 cbr 500 ------- 0 3.1 0.1 47 206
- 1.059524 3 0 cbr 500 ------- 0 3.1 0.1 47 206
r 1.061619 0 1 cbr 500 ------- 0 0.0 1.0 46 200
r 1.061619 1 2 cbr 500 ------- 0 1.1 2.0 46 201
r 1.061619 3 0 cbr 500 ------- 0 3.1 0.1 46 202
+ 1.0625 2 3 cbr 500 ------- 0 2.1 3.0 63 207
- 1.0625 2 3 cbr 500 ------- 0 2.1 3.0 63 207
r 1.067571 2 3 cbr 500 ------- 0 2.1 3.0 62 203
+ 1.071429 0 1 cbr 500 ------- 0 0.0 1.0 48 208
- 1.071429 0 1 cbr 500 ------- 0 0.0 1.0 48 208
+ 1.071429 1 2 cbr 500 ------- 0 1.1 2.0 48 209
- 1.071429 1 2 cbr 500 ------- 0 1.1 2.0 48 209
+ 1.071429 3 0 cbr 500 ------- 0 3.1 0.1 48 210
- 1.071429 3 0 cbr 500 ------- 0 3.1 0.1 48 210
+ 1.071429 2 3 cbr 500 ------- 0 2.1 3.0 64 211
- 1.071429 2 3 cbr 500 ------- 0 2.1 3.0 64 211
r 1.073524 0 1 cbr 500 ------- 0 0.0 1.0 47 204
r 1.073524 1 2 cbr 500 ------- 0 1.1 2.0 47 205
r 1.073524 3 0 cbr 500 ------- 0 3.1 0.1 47 206
r 1.0765 2 3 cbr 500 ------- 0 2.1 3.0 63 207
+ 1.080357 2 3 cbr 500 ------- 0 2.1 3.0 65 212
- 1.080357 2 3 cbr 500 ------- 0 2.1 3.0 65 212
+ 1.083333 0 1 cbr 500 ------- 0 0.0 1.0 49 213
- 1.083333 0 1 cbr 500 ------- 0 0.0 1.0 49 213
+ 1.083333 1 2 cbr 500 ------- 0 1.1 2.0 49 214
- 1.083333 1 2 cbr 500 ------- 0 1.1 2.0 49 214
+ 1.083333 3 0 cbr 500 ------- 0 3.1 0.1 49 215